
     Program PWSCF v.6.1 (svn rev. 13369) starts on 10Oct2017 at 14:54:10 

     This program is part of the open-source Quantum ESPRESSO suite
     for quantum simulation of materials; please cite
         "P. Giannozzi et al., J. Phys.:Condens. Matter 21 395502 (2009);
          URL http://www.quantum-espresso.org", 
     in publications or presentations arising from this work. More details at
     http://www.quantum-espresso.org/quote

     Parallel version (MPI), running on  1792 processors
     R & G space division:  proc/nbgrp/npool/nimage =    1792
     Reading input from aiida.in

     Current dimensions of program PWSCF are:
     Max number of different atomic species (ntypx) = 10
     Max number of k-points (npk) =  40000
     Max angular momentum in pseudopotentials (lmaxx) =  3

     Subspace diagonalization in iterative solution of the eigenvalue problem:
     one sub-group per band group will be used
     ELPA distributed-memory algorithm (size of sub-group: 29* 29 procs)

     Found symmetry operation: I + ( -0.5000 -0.5000  0.0000)
     This is a supercell, fractional translations are disabled
 
     Parallelization info
     --------------------
     sticks:   dense  smooth     PW     G-vecs:    dense   smooth      PW
     Min          13       6      1                 1501      524      55
     Max          14       7      2                 1521      549      78
     Sum       23525   11761   2941              2711337   958091  119825
 


     bravais-lattice index     =            0
     lattice parameter (alat)  =      30.3808  a.u.
     unit-cell volume          =   28041.2070 (a.u.)^3
     number of atoms/cell      =          320
     number of atomic types    =            3
     number of electrons       =      2560.00
     number of Kohn-Sham states=         1280
     kinetic-energy cutoff     =      40.0000  Ry
     charge density cutoff     =     320.0000  Ry
     convergence threshold     =      1.0E-09
     mixing beta               =       0.7000
     number of iterations used =            8  plain     mixing
     Exchange-correlation      =  SLA  PW   PBX  PBC ( 1  4  3  4 0 0)

     celldm(1)=  30.380779  celldm(2)=   0.000000  celldm(3)=   0.000000
     celldm(4)=   0.000000  celldm(5)=   0.000000  celldm(6)=   0.000000

     crystal axes: (cart. coord. in units of alat)
               a(1) = (   1.000000   0.000000   0.000000 )  
               a(2) = (   0.000000   1.000000   0.000000 )  
               a(3) = (   0.000000   0.000000   1.000000 )  

     reciprocal axes: (cart. coord. in units 2 pi/alat)
               b(1) = (  1.000000  0.000000  0.000000 )  
               b(2) = (  0.000000  1.000000  0.000000 )  
               b(3) = (  0.000000  0.000000  1.000000 )  


     PseudoPot. # 1 for Ba read from file:
     ./pseudo/Ba_ONCV_PBE-1.0.upf
     MD5 check sum: 77f30730067903d6b11ccba3a1a50403
     Pseudo is Norm-conserving, Zval = 10.0
     Generated using ONCVPSP code by D. R. Hamann
     Using radial grid of  602 points,  8 beta functions with: 
                l(1) =   0
                l(2) =   0
                l(3) =   1
                l(4) =   1
                l(5) =   2
                l(6) =   2
                l(7) =   3
                l(8) =   3

     PseudoPot. # 2 for O  read from file:
     ./pseudo/O_pbe_v1.2.uspp.F.UPF
     MD5 check sum: 734c27235a0248c51dbae37a1fbe46ec
     Pseudo is Ultrasoft + core correction, Zval =  6.0
     Generated by new atomic code, or converted to UPF format
     Using radial grid of  737 points,  5 beta functions with: 
                l(1) =   0
                l(2) =   0
                l(3) =   1
                l(4) =   1
                l(5) =   2
     Q(r) pseudized with  8 coefficients,  rinner =    0.900   0.900   0.900
                                                       0.900   0.900

     PseudoPot. # 3 for Ti read from file:
     ./pseudo/ti_pbe_v1.4.uspp.F.UPF
     MD5 check sum: 88a00a6731bd790ddea75d31a80cb452
     Pseudo is Ultrasoft + core correction, Zval = 12.0
     Generated by new atomic code, or converted to UPF format
     Using radial grid of  851 points,  6 beta functions with: 
                l(1) =   0
                l(2) =   0
                l(3) =   1
                l(4) =   1
                l(5) =   2
                l(6) =   2
     Q(r) pseudized with  6 coefficients,  rinner =    1.000   1.000   1.000
                                                       1.000   1.000

     atomic species   valence    mass     pseudopotential
        Ba            10.00   137.33000     Ba( 1.00)
        O              6.00    15.99940     O ( 1.00)
        Ti            12.00    47.88000     Ti( 1.00)

     No symmetry found


                                    s                        frac. trans.

      isym =  1     identity                                     

 cryst.   s( 1) = (     1          0          0      )
                  (     0          1          0      )
                  (     0          0          1      )

 cart.    s( 1) = (  1.0000000  0.0000000  0.0000000 )
                  (  0.0000000  1.0000000  0.0000000 )
                  (  0.0000000  0.0000000  1.0000000 )


   Cartesian axes

     site n.     atom                  positions (alat units)
         1           Ba  tau(   1) = (   0.0000000   0.0000000   0.0000000  )
         2           Ba  tau(   2) = (   0.5000000   0.5000000   0.0000000  )
         3           Ba  tau(   3) = (   0.0000000   0.7500000   0.2500000  )
         4           Ba  tau(   4) = (   0.7500000   0.0000000   0.7500000  )
         5           Ba  tau(   5) = (   0.2500000   0.5000000   0.0000000  )
         6           Ba  tau(   6) = (   0.0000000   0.7500000   0.0000000  )
         7           Ba  tau(   7) = (   0.5000000   0.2500000   0.7500000  )
         8           Ba  tau(   8) = (   0.7500000   0.2500000   0.0000000  )
         9           Ba  tau(   9) = (   0.7500000   0.0000000   0.5000000  )
        10           Ba  tau(  10) = (   0.0000000   0.5000000   0.7500000  )
        11           Ba  tau(  11) = (   0.7500000   0.2500000   0.2500000  )
        12           Ba  tau(  12) = (   0.0000000   0.5000000   0.5000000  )
        13           Ba  tau(  13) = (   0.5000000   0.7500000   0.0000000  )
        14           Ba  tau(  14) = (   0.7500000   0.2500000   0.5000000  )
        15           Ba  tau(  15) = (   0.0000000   0.5000000   0.2500000  )
        16           Ba  tau(  16) = (   0.2500000   0.5000000   0.5000000  )
        17           Ba  tau(  17) = (   0.7500000   0.2500000   0.7500000  )
        18           Ba  tau(  18) = (   0.2500000   0.5000000   0.2500000  )
        19           Ba  tau(  19) = (   0.5000000   0.2500000   0.2500000  )
        20           Ba  tau(  20) = (   0.2500000   0.2500000   0.7500000  )
        21           Ba  tau(  21) = (   0.7500000   0.0000000   0.2500000  )
        22           Ba  tau(  22) = (   0.2500000   0.2500000   0.0000000  )
        23           Ba  tau(  23) = (   0.2500000   0.0000000   0.7500000  )
        24           Ba  tau(  24) = (   0.5000000   0.5000000   0.7500000  )
        25           Ba  tau(  25) = (   0.5000000   0.7500000   0.2500000  )
        26           Ba  tau(  26) = (   0.2500000   0.0000000   0.5000000  )
        27           Ba  tau(  27) = (   0.2500000   0.2500000   0.2500000  )
        28           Ba  tau(  28) = (   0.5000000   0.7500000   0.5000000  )
        29           Ba  tau(  29) = (   0.0000000   0.7500000   0.5000000  )
        30           Ba  tau(  30) = (   0.2500000   0.0000000   0.2500000  )
        31           Ba  tau(  31) = (   0.5000000   0.7500000   0.7500000  )
        32           Ba  tau(  32) = (   0.2500000   0.0000000   0.0000000  )
        33           Ba  tau(  33) = (   0.5000000   0.0000000   0.0000000  )
        34           Ba  tau(  34) = (   0.2500000   0.2500000   0.5000000  )
        35           Ba  tau(  35) = (   0.7500000   0.0000000   0.0000000  )
        36           Ba  tau(  36) = (   0.0000000   0.7500000   0.7500000  )
        37           Ba  tau(  37) = (   0.5000000   0.5000000   0.2500000  )
        38           Ba  tau(  38) = (   0.5000000   0.5000000   0.5000000  )
        39           Ba  tau(  39) = (   0.0000000   0.5000000   0.0000000  )
        40           Ba  tau(  40) = (   0.5000000   0.2500000   0.5000000  )
        41           Ba  tau(  41) = (   0.2500000   0.7500000   0.2500000  )
        42           Ba  tau(  42) = (   0.7500000   0.7500000   0.0000000  )
        43           Ba  tau(  43) = (   0.7500000   0.7500000   0.2500000  )
        44           Ba  tau(  44) = (   0.2500000   0.7500000   0.5000000  )
        45           Ba  tau(  45) = (   0.0000000   0.2500000   0.0000000  )
        46           Ba  tau(  46) = (   0.0000000   0.0000000   0.5000000  )
        47           Ba  tau(  47) = (   0.7500000   0.5000000   0.7500000  )
        48           Ba  tau(  48) = (   0.5000000   0.0000000   0.2500000  )
        49           Ba  tau(  49) = (   0.5000000   0.0000000   0.7500000  )
        50           Ba  tau(  50) = (   0.0000000   0.2500000   0.2500000  )
        51           Ba  tau(  51) = (   0.7500000   0.7500000   0.5000000  )
        52           Ba  tau(  52) = (   0.5000000   0.0000000   0.5000000  )
        53           Ba  tau(  53) = (   0.2500000   0.7500000   0.0000000  )
        54           Ba  tau(  54) = (   0.7500000   0.5000000   0.5000000  )
        55           Ba  tau(  55) = (   0.0000000   0.0000000   0.7500000  )
        56           Ba  tau(  56) = (   0.0000000   0.2500000   0.5000000  )
        57           Ba  tau(  57) = (   0.7500000   0.5000000   0.0000000  )
        58           Ba  tau(  58) = (   0.2500000   0.5000000   0.7500000  )
        59           Ba  tau(  59) = (   0.7500000   0.5000000   0.2500000  )
        60           Ba  tau(  60) = (   0.2500000   0.7500000   0.7500000  )
        61           Ba  tau(  61) = (   0.5000000   0.2500000   0.0000000  )
        62           Ba  tau(  62) = (   0.0000000   0.0000000   0.2500000  )
        63           Ba  tau(  63) = (   0.7500000   0.7500000   0.7500000  )
        64           Ba  tau(  64) = (   0.0000000   0.2500000   0.7500000  )
        65           Ti  tau(  65) = (   0.3750000   0.8750000   0.3750000  )
        66           Ti  tau(  66) = (   0.1250000   0.3750000   0.1250000  )
        67           Ti  tau(  67) = (   0.8750000   0.6250000   0.8750000  )
        68           Ti  tau(  68) = (   0.1250000   0.3750000   0.3750000  )
        69           Ti  tau(  69) = (   0.8750000   0.6250000   0.6250000  )
        70           Ti  tau(  70) = (   0.6250000   0.1250000   0.8750000  )
        71           Ti  tau(  71) = (   0.3750000   0.8750000   0.1250000  )
        72           Ti  tau(  72) = (   0.3750000   0.3750000   0.3750000  )
        73           Ti  tau(  73) = (   0.3750000   0.1250000   0.6250000  )
        74           Ti  tau(  74) = (   0.6250000   0.1250000   0.6250000  )
        75           Ti  tau(  75) = (   0.8750000   0.8750000   0.1250000  )
        76           Ti  tau(  76) = (   0.1250000   0.3750000   0.6250000  )
        77           Ti  tau(  77) = (   0.1250000   0.1250000   0.1250000  )
        78           Ti  tau(  78) = (   0.8750000   0.8750000   0.8750000  )
        79           Ti  tau(  79) = (   0.6250000   0.1250000   0.1250000  )
        80           Ti  tau(  80) = (   0.3750000   0.8750000   0.8750000  )
        81           Ti  tau(  81) = (   0.6250000   0.8750000   0.1250000  )
        82           Ti  tau(  82) = (   0.1250000   0.1250000   0.3750000  )
        83           Ti  tau(  83) = (   0.8750000   0.8750000   0.6250000  )
        84           Ti  tau(  84) = (   0.3750000   0.1250000   0.8750000  )
        85           Ti  tau(  85) = (   0.3750000   0.3750000   0.1250000  )
        86           Ti  tau(  86) = (   0.6250000   0.1250000   0.3750000  )
        87           Ti  tau(  87) = (   0.1250000   0.1250000   0.6250000  )
        88           Ti  tau(  88) = (   0.8750000   0.8750000   0.3750000  )
        89           Ti  tau(  89) = (   0.3750000   0.8750000   0.6250000  )
        90           Ti  tau(  90) = (   0.6250000   0.6250000   0.8750000  )
        91           Ti  tau(  91) = (   0.1250000   0.1250000   0.8750000  )
        92           Ti  tau(  92) = (   0.6250000   0.8750000   0.3750000  )
        93           Ti  tau(  93) = (   0.8750000   0.6250000   0.3750000  )
        94           Ti  tau(  94) = (   0.8750000   0.1250000   0.3750000  )
        95           Ti  tau(  95) = (   0.3750000   0.1250000   0.3750000  )
        96           Ti  tau(  96) = (   0.1250000   0.8750000   0.6250000  )
        97           Ti  tau(  97) = (   0.3750000   0.3750000   0.8750000  )
        98           Ti  tau(  98) = (   0.6250000   0.6250000   0.1250000  )
        99           Ti  tau(  99) = (   0.8750000   0.1250000   0.6250000  )
       100           Ti  tau( 100) = (   0.1250000   0.8750000   0.3750000  )
       101           Ti  tau( 101) = (   0.1250000   0.8750000   0.8750000  )
       102           Ti  tau( 102) = (   0.3750000   0.6250000   0.1250000  )
       103           Ti  tau( 103) = (   0.8750000   0.1250000   0.8750000  )
       104           Ti  tau( 104) = (   0.1250000   0.8750000   0.1250000  )
       105           Ti  tau( 105) = (   0.6250000   0.3750000   0.8750000  )
       106           Ti  tau( 106) = (   0.8750000   0.1250000   0.1250000  )
       107           Ti  tau( 107) = (   0.6250000   0.6250000   0.3750000  )
       108           Ti  tau( 108) = (   0.8750000   0.3750000   0.1250000  )
       109           Ti  tau( 109) = (   0.1250000   0.6250000   0.8750000  )
       110           Ti  tau( 110) = (   0.3750000   0.3750000   0.6250000  )
       111           Ti  tau( 111) = (   0.3750000   0.6250000   0.3750000  )
       112           Ti  tau( 112) = (   0.6250000   0.3750000   0.6250000  )
       113           Ti  tau( 113) = (   0.6250000   0.3750000   0.1250000  )
       114           Ti  tau( 114) = (   0.8750000   0.6250000   0.1250000  )
       115           Ti  tau( 115) = (   0.3750000   0.6250000   0.8750000  )
       116           Ti  tau( 116) = (   0.6250000   0.6250000   0.6250000  )
       117           Ti  tau( 117) = (   0.1250000   0.6250000   0.1250000  )
       118           Ti  tau( 118) = (   0.8750000   0.3750000   0.8750000  )
       119           Ti  tau( 119) = (   0.6250000   0.8750000   0.6250000  )
       120           Ti  tau( 120) = (   0.6250000   0.3750000   0.3750000  )
       121           Ti  tau( 121) = (   0.1250000   0.6250000   0.3750000  )
       122           Ti  tau( 122) = (   0.8750000   0.3750000   0.6250000  )
       123           Ti  tau( 123) = (   0.6250000   0.8750000   0.8750000  )
       124           Ti  tau( 124) = (   0.3750000   0.1250000   0.1250000  )
       125           Ti  tau( 125) = (   0.1250000   0.6250000   0.6250000  )
       126           Ti  tau( 126) = (   0.8750000   0.3750000   0.3750000  )
       127           Ti  tau( 127) = (   0.3750000   0.6250000   0.6250000  )
       128           Ti  tau( 128) = (   0.1250000   0.3750000   0.8750000  )
       129           O   tau( 129) = (   0.5000000   0.1250000   0.3750000  )
       130           O   tau( 130) = (   0.6250000   0.0000000   0.3750000  )
       131           O   tau( 131) = (   0.6250000   0.1250000   0.0000000  )
       132           O   tau( 132) = (   0.6250000   0.5000000   0.3750000  )
       133           O   tau( 133) = (   0.6250000   0.5000000   0.6250000  )
       134           O   tau( 134) = (   0.6250000   0.1250000   0.2500000  )
       135           O   tau( 135) = (   0.6250000   0.6250000   0.5000000  )
       136           O   tau( 136) = (   0.6250000   0.0000000   0.1250000  )
       137           O   tau( 137) = (   0.5000000   0.6250000   0.6250000  )
       138           O   tau( 138) = (   0.5000000   0.1250000   0.1250000  )
       139           O   tau( 139) = (   0.6250000   0.6250000   0.7500000  )
       140           O   tau( 140) = (   0.5000000   0.6250000   0.3750000  )
       141           O   tau( 141) = (   0.6250000   0.2500000   0.1250000  )
       142           O   tau( 142) = (   0.5000000   0.6250000   0.1250000  )
       143           O   tau( 143) = (   0.6250000   0.3750000   0.2500000  )
       144           O   tau( 144) = (   0.6250000   0.3750000   0.0000000  )
       145           O   tau( 145) = (   0.6250000   0.2500000   0.3750000  )
       146           O   tau( 146) = (   0.5000000   0.3750000   0.3750000  )
       147           O   tau( 147) = (   0.5000000   0.1250000   0.8750000  )
       148           O   tau( 148) = (   0.6250000   0.3750000   0.5000000  )
       149           O   tau( 149) = (   0.6250000   0.0000000   0.8750000  )
       150           O   tau( 150) = (   0.6250000   0.2500000   0.6250000  )
       151           O   tau( 151) = (   0.5000000   0.3750000   0.6250000  )
       152           O   tau( 152) = (   0.6250000   0.1250000   0.7500000  )
       153           O   tau( 153) = (   0.6250000   0.3750000   0.7500000  )
       154           O   tau( 154) = (   0.5000000   0.1250000   0.6250000  )
       155           O   tau( 155) = (   0.6250000   0.2500000   0.8750000  )
       156           O   tau( 156) = (   0.5000000   0.3750000   0.8750000  )
       157           O   tau( 157) = (   0.6250000   0.0000000   0.6250000  )
       158           O   tau( 158) = (   0.6250000   0.6250000   0.0000000  )
       159           O   tau( 159) = (   0.5000000   0.3750000   0.1250000  )
       160           O   tau( 160) = (   0.6250000   0.1250000   0.5000000  )
       161           O   tau( 161) = (   0.6250000   0.5000000   0.1250000  )
       162           O   tau( 162) = (   0.6250000   0.6250000   0.2500000  )
       163           O   tau( 163) = (   0.6250000   0.5000000   0.8750000  )
       164           O   tau( 164) = (   0.6250000   0.7500000   0.8750000  )
       165           O   tau( 165) = (   0.6250000   0.8750000   0.0000000  )
       166           O   tau( 166) = (   0.7500000   0.3750000   0.6250000  )
       167           O   tau( 167) = (   0.8750000   0.3750000   0.7500000  )
       168           O   tau( 168) = (   0.8750000   0.2500000   0.8750000  )
       169           O   tau( 169) = (   0.7500000   0.3750000   0.8750000  )
       170           O   tau( 170) = (   0.8750000   0.6250000   0.0000000  )
       171           O   tau( 171) = (   0.8750000   0.5000000   0.1250000  )
       172           O   tau( 172) = (   0.7500000   0.6250000   0.1250000  )
       173           O   tau( 173) = (   0.8750000   0.6250000   0.2500000  )
       174           O   tau( 174) = (   0.8750000   0.5000000   0.3750000  )
       175           O   tau( 175) = (   0.7500000   0.6250000   0.3750000  )
       176           O   tau( 176) = (   0.8750000   0.6250000   0.5000000  )
       177           O   tau( 177) = (   0.8750000   0.5000000   0.6250000  )
       178           O   tau( 178) = (   0.8750000   0.2500000   0.6250000  )
       179           O   tau( 179) = (   0.7500000   0.6250000   0.6250000  )
       180           O   tau( 180) = (   0.8750000   0.5000000   0.8750000  )
       181           O   tau( 181) = (   0.7500000   0.6250000   0.8750000  )
       182           O   tau( 182) = (   0.8750000   0.8750000   0.0000000  )
       183           O   tau( 183) = (   0.8750000   0.7500000   0.1250000  )
       184           O   tau( 184) = (   0.7500000   0.8750000   0.1250000  )
       185           O   tau( 185) = (   0.8750000   0.8750000   0.2500000  )
       186           O   tau( 186) = (   0.8750000   0.7500000   0.3750000  )
       187           O   tau( 187) = (   0.7500000   0.8750000   0.3750000  )
       188           O   tau( 188) = (   0.8750000   0.8750000   0.5000000  )
       189           O   tau( 189) = (   0.8750000   0.7500000   0.6250000  )
       190           O   tau( 190) = (   0.7500000   0.8750000   0.6250000  )
       191           O   tau( 191) = (   0.8750000   0.8750000   0.7500000  )
       192           O   tau( 192) = (   0.8750000   0.6250000   0.7500000  )
       193           O   tau( 193) = (   0.5000000   0.6250000   0.8750000  )
       194           O   tau( 194) = (   0.8750000   0.3750000   0.5000000  )
       195           O   tau( 195) = (   0.8750000   0.2500000   0.3750000  )
       196           O   tau( 196) = (   0.6250000   0.7500000   0.1250000  )
       197           O   tau( 197) = (   0.5000000   0.8750000   0.1250000  )
       198           O   tau( 198) = (   0.6250000   0.8750000   0.2500000  )
       199           O   tau( 199) = (   0.6250000   0.7500000   0.3750000  )
       200           O   tau( 200) = (   0.5000000   0.8750000   0.3750000  )
       201           O   tau( 201) = (   0.6250000   0.8750000   0.5000000  )
       202           O   tau( 202) = (   0.6250000   0.7500000   0.6250000  )
       203           O   tau( 203) = (   0.5000000   0.8750000   0.6250000  )
       204           O   tau( 204) = (   0.6250000   0.8750000   0.7500000  )
       205           O   tau( 205) = (   0.5000000   0.8750000   0.8750000  )
       206           O   tau( 206) = (   0.8750000   0.1250000   0.0000000  )
       207           O   tau( 207) = (   0.8750000   0.0000000   0.1250000  )
       208           O   tau( 208) = (   0.7500000   0.3750000   0.3750000  )
       209           O   tau( 209) = (   0.7500000   0.1250000   0.1250000  )
       210           O   tau( 210) = (   0.8750000   0.0000000   0.3750000  )
       211           O   tau( 211) = (   0.7500000   0.1250000   0.3750000  )
       212           O   tau( 212) = (   0.8750000   0.1250000   0.5000000  )
       213           O   tau( 213) = (   0.8750000   0.0000000   0.6250000  )
       214           O   tau( 214) = (   0.7500000   0.1250000   0.6250000  )
       215           O   tau( 215) = (   0.8750000   0.1250000   0.7500000  )
       216           O   tau( 216) = (   0.8750000   0.0000000   0.8750000  )
       217           O   tau( 217) = (   0.7500000   0.1250000   0.8750000  )
       218           O   tau( 218) = (   0.8750000   0.3750000   0.0000000  )
       219           O   tau( 219) = (   0.8750000   0.2500000   0.1250000  )
       220           O   tau( 220) = (   0.7500000   0.3750000   0.1250000  )
       221           O   tau( 221) = (   0.8750000   0.3750000   0.2500000  )
       222           O   tau( 222) = (   0.8750000   0.1250000   0.2500000  )
       223           O   tau( 223) = (   0.8750000   0.7500000   0.8750000  )
       224           O   tau( 224) = (   0.2500000   0.8750000   0.8750000  )
       225           O   tau( 225) = (   0.3750000   0.8750000   0.7500000  )
       226           O   tau( 226) = (   0.1250000   0.6250000   0.5000000  )
       227           O   tau( 227) = (   0.1250000   0.5000000   0.6250000  )
       228           O   tau( 228) = (   0.0000000   0.6250000   0.6250000  )
       229           O   tau( 229) = (   0.1250000   0.6250000   0.7500000  )
       230           O   tau( 230) = (   0.1250000   0.5000000   0.8750000  )
       231           O   tau( 231) = (   0.0000000   0.6250000   0.8750000  )
       232           O   tau( 232) = (   0.1250000   0.8750000   0.0000000  )
       233           O   tau( 233) = (   0.1250000   0.7500000   0.1250000  )
       234           O   tau( 234) = (   0.0000000   0.8750000   0.1250000  )
       235           O   tau( 235) = (   0.1250000   0.8750000   0.2500000  )
       236           O   tau( 236) = (   0.1250000   0.7500000   0.3750000  )
       237           O   tau( 237) = (   0.0000000   0.8750000   0.3750000  )
       238           O   tau( 238) = (   0.0000000   0.6250000   0.3750000  )
       239           O   tau( 239) = (   0.1250000   0.8750000   0.5000000  )
       240           O   tau( 240) = (   0.0000000   0.8750000   0.6250000  )
       241           O   tau( 241) = (   0.1250000   0.8750000   0.7500000  )
       242           O   tau( 242) = (   0.3750000   0.7500000   0.8750000  )
       243           O   tau( 243) = (   0.0000000   0.8750000   0.8750000  )
       244           O   tau( 244) = (   0.3750000   0.1250000   0.0000000  )
       245           O   tau( 245) = (   0.3750000   0.0000000   0.1250000  )
       246           O   tau( 246) = (   0.2500000   0.1250000   0.1250000  )
       247           O   tau( 247) = (   0.3750000   0.1250000   0.2500000  )
       248           O   tau( 248) = (   0.3750000   0.0000000   0.3750000  )
       249           O   tau( 249) = (   0.2500000   0.1250000   0.3750000  )
       250           O   tau( 250) = (   0.3750000   0.1250000   0.5000000  )
       251           O   tau( 251) = (   0.3750000   0.0000000   0.6250000  )
       252           O   tau( 252) = (   0.1250000   0.7500000   0.6250000  )
       253           O   tau( 253) = (   0.2500000   0.1250000   0.6250000  )
       254           O   tau( 254) = (   0.1250000   0.5000000   0.3750000  )
       255           O   tau( 255) = (   0.0000000   0.6250000   0.1250000  )
       256           O   tau( 256) = (   0.1250000   0.1250000   0.0000000  )
       257           O   tau( 257) = (   0.1250000   0.0000000   0.1250000  )
       258           O   tau( 258) = (   0.0000000   0.1250000   0.1250000  )
       259           O   tau( 259) = (   0.1250000   0.1250000   0.2500000  )
       260           O   tau( 260) = (   0.1250000   0.0000000   0.3750000  )
       261           O   tau( 261) = (   0.0000000   0.1250000   0.3750000  )
       262           O   tau( 262) = (   0.1250000   0.1250000   0.5000000  )
       263           O   tau( 263) = (   0.1250000   0.0000000   0.6250000  )
       264           O   tau( 264) = (   0.0000000   0.1250000   0.6250000  )
       265           O   tau( 265) = (   0.1250000   0.1250000   0.7500000  )
       266           O   tau( 266) = (   0.1250000   0.0000000   0.8750000  )
       267           O   tau( 267) = (   0.0000000   0.1250000   0.8750000  )
       268           O   tau( 268) = (   0.1250000   0.6250000   0.2500000  )
       269           O   tau( 269) = (   0.1250000   0.3750000   0.0000000  )
       270           O   tau( 270) = (   0.0000000   0.3750000   0.1250000  )
       271           O   tau( 271) = (   0.1250000   0.3750000   0.2500000  )
       272           O   tau( 272) = (   0.1250000   0.2500000   0.3750000  )
       273           O   tau( 273) = (   0.0000000   0.3750000   0.3750000  )
       274           O   tau( 274) = (   0.1250000   0.3750000   0.5000000  )
       275           O   tau( 275) = (   0.1250000   0.2500000   0.6250000  )
       276           O   tau( 276) = (   0.0000000   0.3750000   0.6250000  )
       277           O   tau( 277) = (   0.1250000   0.3750000   0.7500000  )
       278           O   tau( 278) = (   0.1250000   0.2500000   0.8750000  )
       279           O   tau( 279) = (   0.0000000   0.3750000   0.8750000  )
       280           O   tau( 280) = (   0.1250000   0.6250000   0.0000000  )
       281           O   tau( 281) = (   0.1250000   0.5000000   0.1250000  )
       282           O   tau( 282) = (   0.1250000   0.2500000   0.1250000  )
       283           O   tau( 283) = (   0.3750000   0.1250000   0.7500000  )
       284           O   tau( 284) = (   0.1250000   0.7500000   0.8750000  )
       285           O   tau( 285) = (   0.2500000   0.1250000   0.8750000  )
       286           O   tau( 286) = (   0.2500000   0.3750000   0.8750000  )
       287           O   tau( 287) = (   0.3750000   0.6250000   0.0000000  )
       288           O   tau( 288) = (   0.3750000   0.5000000   0.1250000  )
       289           O   tau( 289) = (   0.2500000   0.6250000   0.1250000  )
       290           O   tau( 290) = (   0.3750000   0.6250000   0.2500000  )
       291           O   tau( 291) = (   0.3750000   0.0000000   0.8750000  )
       292           O   tau( 292) = (   0.2500000   0.6250000   0.3750000  )
       293           O   tau( 293) = (   0.3750000   0.6250000   0.5000000  )
       294           O   tau( 294) = (   0.3750000   0.5000000   0.6250000  )
       295           O   tau( 295) = (   0.2500000   0.6250000   0.6250000  )
       296           O   tau( 296) = (   0.3750000   0.2500000   0.8750000  )
       297           O   tau( 297) = (   0.3750000   0.6250000   0.7500000  )
       298           O   tau( 298) = (   0.2500000   0.6250000   0.8750000  )
       299           O   tau( 299) = (   0.3750000   0.8750000   0.0000000  )
       300           O   tau( 300) = (   0.3750000   0.7500000   0.1250000  )
       301           O   tau( 301) = (   0.2500000   0.8750000   0.1250000  )
       302           O   tau( 302) = (   0.3750000   0.8750000   0.2500000  )
       303           O   tau( 303) = (   0.3750000   0.7500000   0.3750000  )
       304           O   tau( 304) = (   0.2500000   0.8750000   0.3750000  )
       305           O   tau( 305) = (   0.3750000   0.8750000   0.5000000  )
       306           O   tau( 306) = (   0.3750000   0.7500000   0.6250000  )
       307           O   tau( 307) = (   0.2500000   0.8750000   0.6250000  )
       308           O   tau( 308) = (   0.3750000   0.5000000   0.8750000  )
       309           O   tau( 309) = (   0.3750000   0.3750000   0.7500000  )
       310           O   tau( 310) = (   0.3750000   0.5000000   0.3750000  )
       311           O   tau( 311) = (   0.7500000   0.8750000   0.8750000  )
       312           O   tau( 312) = (   0.2500000   0.3750000   0.6250000  )
       313           O   tau( 313) = (   0.3750000   0.3750000   0.0000000  )
       314           O   tau( 314) = (   0.3750000   0.2500000   0.6250000  )
       315           O   tau( 315) = (   0.3750000   0.3750000   0.2500000  )
       316           O   tau( 316) = (   0.3750000   0.3750000   0.5000000  )
       317           O   tau( 317) = (   0.2500000   0.3750000   0.3750000  )
       318           O   tau( 318) = (   0.3750000   0.2500000   0.3750000  )
       319           O   tau( 319) = (   0.2500000   0.3750000   0.1250000  )
       320           O   tau( 320) = (   0.3750000   0.2500000   0.1250000  )

   Crystallographic axes

     site n.     atom                  positions (cryst. coord.)
         1           Ba  tau(   1) = (  0.0000000  0.0000000  0.0000000  )
         2           Ba  tau(   2) = (  0.5000000  0.5000000  0.0000000  )
         3           Ba  tau(   3) = (  0.0000000  0.7500000  0.2500000  )
         4           Ba  tau(   4) = (  0.7500000  0.0000000  0.7500000  )
         5           Ba  tau(   5) = (  0.2500000  0.5000000  0.0000000  )
         6           Ba  tau(   6) = (  0.0000000  0.7500000  0.0000000  )
         7           Ba  tau(   7) = (  0.5000000  0.2500000  0.7500000  )
         8           Ba  tau(   8) = (  0.7500000  0.2500000  0.0000000  )
         9           Ba  tau(   9) = (  0.7500000  0.0000000  0.5000000  )
        10           Ba  tau(  10) = (  0.0000000  0.5000000  0.7500000  )
        11           Ba  tau(  11) = (  0.7500000  0.2500000  0.2500000  )
        12           Ba  tau(  12) = (  0.0000000  0.5000000  0.5000000  )
        13           Ba  tau(  13) = (  0.5000000  0.7500000  0.0000000  )
        14           Ba  tau(  14) = (  0.7500000  0.2500000  0.5000000  )
        15           Ba  tau(  15) = (  0.0000000  0.5000000  0.2500000  )
        16           Ba  tau(  16) = (  0.2500000  0.5000000  0.5000000  )
        17           Ba  tau(  17) = (  0.7500000  0.2500000  0.7500000  )
        18           Ba  tau(  18) = (  0.2500000  0.5000000  0.2500000  )
        19           Ba  tau(  19) = (  0.5000000  0.2500000  0.2500000  )
        20           Ba  tau(  20) = (  0.2500000  0.2500000  0.7500000  )
        21           Ba  tau(  21) = (  0.7500000  0.0000000  0.2500000  )
        22           Ba  tau(  22) = (  0.2500000  0.2500000  0.0000000  )
        23           Ba  tau(  23) = (  0.2500000  0.0000000  0.7500000  )
        24           Ba  tau(  24) = (  0.5000000  0.5000000  0.7500000  )
        25           Ba  tau(  25) = (  0.5000000  0.7500000  0.2500000  )
        26           Ba  tau(  26) = (  0.2500000  0.0000000  0.5000000  )
        27           Ba  tau(  27) = (  0.2500000  0.2500000  0.2500000  )
        28           Ba  tau(  28) = (  0.5000000  0.7500000  0.5000000  )
        29           Ba  tau(  29) = (  0.0000000  0.7500000  0.5000000  )
        30           Ba  tau(  30) = (  0.2500000  0.0000000  0.2500000  )
        31           Ba  tau(  31) = (  0.5000000  0.7500000  0.7500000  )
        32           Ba  tau(  32) = (  0.2500000  0.0000000  0.0000000  )
        33           Ba  tau(  33) = (  0.5000000  0.0000000  0.0000000  )
        34           Ba  tau(  34) = (  0.2500000  0.2500000  0.5000000  )
        35           Ba  tau(  35) = (  0.7500000  0.0000000  0.0000000  )
        36           Ba  tau(  36) = (  0.0000000  0.7500000  0.7500000  )
        37           Ba  tau(  37) = (  0.5000000  0.5000000  0.2500000  )
        38           Ba  tau(  38) = (  0.5000000  0.5000000  0.5000000  )
        39           Ba  tau(  39) = (  0.0000000  0.5000000  0.0000000  )
        40           Ba  tau(  40) = (  0.5000000  0.2500000  0.5000000  )
        41           Ba  tau(  41) = (  0.2500000  0.7500000  0.2500000  )
        42           Ba  tau(  42) = (  0.7500000  0.7500000  0.0000000  )
        43           Ba  tau(  43) = (  0.7500000  0.7500000  0.2500000  )
        44           Ba  tau(  44) = (  0.2500000  0.7500000  0.5000000  )
        45           Ba  tau(  45) = (  0.0000000  0.2500000  0.0000000  )
        46           Ba  tau(  46) = (  0.0000000  0.0000000  0.5000000  )
        47           Ba  tau(  47) = (  0.7500000  0.5000000  0.7500000  )
        48           Ba  tau(  48) = (  0.5000000  0.0000000  0.2500000  )
        49           Ba  tau(  49) = (  0.5000000  0.0000000  0.7500000  )
        50           Ba  tau(  50) = (  0.0000000  0.2500000  0.2500000  )
        51           Ba  tau(  51) = (  0.7500000  0.7500000  0.5000000  )
        52           Ba  tau(  52) = (  0.5000000  0.0000000  0.5000000  )
        53           Ba  tau(  53) = (  0.2500000  0.7500000  0.0000000  )
        54           Ba  tau(  54) = (  0.7500000  0.5000000  0.5000000  )
        55           Ba  tau(  55) = (  0.0000000  0.0000000  0.7500000  )
        56           Ba  tau(  56) = (  0.0000000  0.2500000  0.5000000  )
        57           Ba  tau(  57) = (  0.7500000  0.5000000  0.0000000  )
        58           Ba  tau(  58) = (  0.2500000  0.5000000  0.7500000  )
        59           Ba  tau(  59) = (  0.7500000  0.5000000  0.2500000  )
        60           Ba  tau(  60) = (  0.2500000  0.7500000  0.7500000  )
        61           Ba  tau(  61) = (  0.5000000  0.2500000  0.0000000  )
        62           Ba  tau(  62) = (  0.0000000  0.0000000  0.2500000  )
        63           Ba  tau(  63) = (  0.7500000  0.7500000  0.7500000  )
        64           Ba  tau(  64) = (  0.0000000  0.2500000  0.7500000  )
        65           Ti  tau(  65) = (  0.3750000  0.8750000  0.3750000  )
        66           Ti  tau(  66) = (  0.1250000  0.3750000  0.1250000  )
        67           Ti  tau(  67) = (  0.8750000  0.6250000  0.8750000  )
        68           Ti  tau(  68) = (  0.1250000  0.3750000  0.3750000  )
        69           Ti  tau(  69) = (  0.8750000  0.6250000  0.6250000  )
        70           Ti  tau(  70) = (  0.6250000  0.1250000  0.8750000  )
        71           Ti  tau(  71) = (  0.3750000  0.8750000  0.1250000  )
        72           Ti  tau(  72) = (  0.3750000  0.3750000  0.3750000  )
        73           Ti  tau(  73) = (  0.3750000  0.1250000  0.6250000  )
        74           Ti  tau(  74) = (  0.6250000  0.1250000  0.6250000  )
        75           Ti  tau(  75) = (  0.8750000  0.8750000  0.1250000  )
        76           Ti  tau(  76) = (  0.1250000  0.3750000  0.6250000  )
        77           Ti  tau(  77) = (  0.1250000  0.1250000  0.1250000  )
        78           Ti  tau(  78) = (  0.8750000  0.8750000  0.8750000  )
        79           Ti  tau(  79) = (  0.6250000  0.1250000  0.1250000  )
        80           Ti  tau(  80) = (  0.3750000  0.8750000  0.8750000  )
        81           Ti  tau(  81) = (  0.6250000  0.8750000  0.1250000  )
        82           Ti  tau(  82) = (  0.1250000  0.1250000  0.3750000  )
        83           Ti  tau(  83) = (  0.8750000  0.8750000  0.6250000  )
        84           Ti  tau(  84) = (  0.3750000  0.1250000  0.8750000  )
        85           Ti  tau(  85) = (  0.3750000  0.3750000  0.1250000  )
        86           Ti  tau(  86) = (  0.6250000  0.1250000  0.3750000  )
        87           Ti  tau(  87) = (  0.1250000  0.1250000  0.6250000  )
        88           Ti  tau(  88) = (  0.8750000  0.8750000  0.3750000  )
        89           Ti  tau(  89) = (  0.3750000  0.8750000  0.6250000  )
        90           Ti  tau(  90) = (  0.6250000  0.6250000  0.8750000  )
        91           Ti  tau(  91) = (  0.1250000  0.1250000  0.8750000  )
        92           Ti  tau(  92) = (  0.6250000  0.8750000  0.3750000  )
        93           Ti  tau(  93) = (  0.8750000  0.6250000  0.3750000  )
        94           Ti  tau(  94) = (  0.8750000  0.1250000  0.3750000  )
        95           Ti  tau(  95) = (  0.3750000  0.1250000  0.3750000  )
        96           Ti  tau(  96) = (  0.1250000  0.8750000  0.6250000  )
        97           Ti  tau(  97) = (  0.3750000  0.3750000  0.8750000  )
        98           Ti  tau(  98) = (  0.6250000  0.6250000  0.1250000  )
        99           Ti  tau(  99) = (  0.8750000  0.1250000  0.6250000  )
       100           Ti  tau( 100) = (  0.1250000  0.8750000  0.3750000  )
       101           Ti  tau( 101) = (  0.1250000  0.8750000  0.8750000  )
       102           Ti  tau( 102) = (  0.3750000  0.6250000  0.1250000  )
       103           Ti  tau( 103) = (  0.8750000  0.1250000  0.8750000  )
       104           Ti  tau( 104) = (  0.1250000  0.8750000  0.1250000  )
       105           Ti  tau( 105) = (  0.6250000  0.3750000  0.8750000  )
       106           Ti  tau( 106) = (  0.8750000  0.1250000  0.1250000  )
       107           Ti  tau( 107) = (  0.6250000  0.6250000  0.3750000  )
       108           Ti  tau( 108) = (  0.8750000  0.3750000  0.1250000  )
       109           Ti  tau( 109) = (  0.1250000  0.6250000  0.8750000  )
       110           Ti  tau( 110) = (  0.3750000  0.3750000  0.6250000  )
       111           Ti  tau( 111) = (  0.3750000  0.6250000  0.3750000  )
       112           Ti  tau( 112) = (  0.6250000  0.3750000  0.6250000  )
       113           Ti  tau( 113) = (  0.6250000  0.3750000  0.1250000  )
       114           Ti  tau( 114) = (  0.8750000  0.6250000  0.1250000  )
       115           Ti  tau( 115) = (  0.3750000  0.6250000  0.8750000  )
       116           Ti  tau( 116) = (  0.6250000  0.6250000  0.6250000  )
       117           Ti  tau( 117) = (  0.1250000  0.6250000  0.1250000  )
       118           Ti  tau( 118) = (  0.8750000  0.3750000  0.8750000  )
       119           Ti  tau( 119) = (  0.6250000  0.8750000  0.6250000  )
       120           Ti  tau( 120) = (  0.6250000  0.3750000  0.3750000  )
       121           Ti  tau( 121) = (  0.1250000  0.6250000  0.3750000  )
       122           Ti  tau( 122) = (  0.8750000  0.3750000  0.6250000  )
       123           Ti  tau( 123) = (  0.6250000  0.8750000  0.8750000  )
       124           Ti  tau( 124) = (  0.3750000  0.1250000  0.1250000  )
       125           Ti  tau( 125) = (  0.1250000  0.6250000  0.6250000  )
       126           Ti  tau( 126) = (  0.8750000  0.3750000  0.3750000  )
       127           Ti  tau( 127) = (  0.3750000  0.6250000  0.6250000  )
       128           Ti  tau( 128) = (  0.1250000  0.3750000  0.8750000  )
       129           O   tau( 129) = (  0.5000000  0.1250000  0.3750000  )
       130           O   tau( 130) = (  0.6250000  0.0000000  0.3750000  )
       131           O   tau( 131) = (  0.6250000  0.1250000  0.0000000  )
       132           O   tau( 132) = (  0.6250000  0.5000000  0.3750000  )
       133           O   tau( 133) = (  0.6250000  0.5000000  0.6250000  )
       134           O   tau( 134) = (  0.6250000  0.1250000  0.2500000  )
       135           O   tau( 135) = (  0.6250000  0.6250000  0.5000000  )
       136           O   tau( 136) = (  0.6250000  0.0000000  0.1250000  )
       137           O   tau( 137) = (  0.5000000  0.6250000  0.6250000  )
       138           O   tau( 138) = (  0.5000000  0.1250000  0.1250000  )
       139           O   tau( 139) = (  0.6250000  0.6250000  0.7500000  )
       140           O   tau( 140) = (  0.5000000  0.6250000  0.3750000  )
       141           O   tau( 141) = (  0.6250000  0.2500000  0.1250000  )
       142           O   tau( 142) = (  0.5000000  0.6250000  0.1250000  )
       143           O   tau( 143) = (  0.6250000  0.3750000  0.2500000  )
       144           O   tau( 144) = (  0.6250000  0.3750000  0.0000000  )
       145           O   tau( 145) = (  0.6250000  0.2500000  0.3750000  )
       146           O   tau( 146) = (  0.5000000  0.3750000  0.3750000  )
       147           O   tau( 147) = (  0.5000000  0.1250000  0.8750000  )
       148           O   tau( 148) = (  0.6250000  0.3750000  0.5000000  )
       149           O   tau( 149) = (  0.6250000  0.0000000  0.8750000  )
       150           O   tau( 150) = (  0.6250000  0.2500000  0.6250000  )
       151           O   tau( 151) = (  0.5000000  0.3750000  0.6250000  )
       152           O   tau( 152) = (  0.6250000  0.1250000  0.7500000  )
       153           O   tau( 153) = (  0.6250000  0.3750000  0.7500000  )
       154           O   tau( 154) = (  0.5000000  0.1250000  0.6250000  )
       155           O   tau( 155) = (  0.6250000  0.2500000  0.8750000  )
       156           O   tau( 156) = (  0.5000000  0.3750000  0.8750000  )
       157           O   tau( 157) = (  0.6250000  0.0000000  0.6250000  )
       158           O   tau( 158) = (  0.6250000  0.6250000  0.0000000  )
       159           O   tau( 159) = (  0.5000000  0.3750000  0.1250000  )
       160           O   tau( 160) = (  0.6250000  0.1250000  0.5000000  )
       161           O   tau( 161) = (  0.6250000  0.5000000  0.1250000  )
       162           O   tau( 162) = (  0.6250000  0.6250000  0.2500000  )
       163           O   tau( 163) = (  0.6250000  0.5000000  0.8750000  )
       164           O   tau( 164) = (  0.6250000  0.7500000  0.8750000  )
       165           O   tau( 165) = (  0.6250000  0.8750000  0.0000000  )
       166           O   tau( 166) = (  0.7500000  0.3750000  0.6250000  )
       167           O   tau( 167) = (  0.8750000  0.3750000  0.7500000  )
       168           O   tau( 168) = (  0.8750000  0.2500000  0.8750000  )
       169           O   tau( 169) = (  0.7500000  0.3750000  0.8750000  )
       170           O   tau( 170) = (  0.8750000  0.6250000  0.0000000  )
       171           O   tau( 171) = (  0.8750000  0.5000000  0.1250000  )
       172           O   tau( 172) = (  0.7500000  0.6250000  0.1250000  )
       173           O   tau( 173) = (  0.8750000  0.6250000  0.2500000  )
       174           O   tau( 174) = (  0.8750000  0.5000000  0.3750000  )
       175           O   tau( 175) = (  0.7500000  0.6250000  0.3750000  )
       176           O   tau( 176) = (  0.8750000  0.6250000  0.5000000  )
       177           O   tau( 177) = (  0.8750000  0.5000000  0.6250000  )
       178           O   tau( 178) = (  0.8750000  0.2500000  0.6250000  )
       179           O   tau( 179) = (  0.7500000  0.6250000  0.6250000  )
       180           O   tau( 180) = (  0.8750000  0.5000000  0.8750000  )
       181           O   tau( 181) = (  0.7500000  0.6250000  0.8750000  )
       182           O   tau( 182) = (  0.8750000  0.8750000  0.0000000  )
       183           O   tau( 183) = (  0.8750000  0.7500000  0.1250000  )
       184           O   tau( 184) = (  0.7500000  0.8750000  0.1250000  )
       185           O   tau( 185) = (  0.8750000  0.8750000  0.2500000  )
       186           O   tau( 186) = (  0.8750000  0.7500000  0.3750000  )
       187           O   tau( 187) = (  0.7500000  0.8750000  0.3750000  )
       188           O   tau( 188) = (  0.8750000  0.8750000  0.5000000  )
       189           O   tau( 189) = (  0.8750000  0.7500000  0.6250000  )
       190           O   tau( 190) = (  0.7500000  0.8750000  0.6250000  )
       191           O   tau( 191) = (  0.8750000  0.8750000  0.7500000  )
       192           O   tau( 192) = (  0.8750000  0.6250000  0.7500000  )
       193           O   tau( 193) = (  0.5000000  0.6250000  0.8750000  )
       194           O   tau( 194) = (  0.8750000  0.3750000  0.5000000  )
       195           O   tau( 195) = (  0.8750000  0.2500000  0.3750000  )
       196           O   tau( 196) = (  0.6250000  0.7500000  0.1250000  )
       197           O   tau( 197) = (  0.5000000  0.8750000  0.1250000  )
       198           O   tau( 198) = (  0.6250000  0.8750000  0.2500000  )
       199           O   tau( 199) = (  0.6250000  0.7500000  0.3750000  )
       200           O   tau( 200) = (  0.5000000  0.8750000  0.3750000  )
       201           O   tau( 201) = (  0.6250000  0.8750000  0.5000000  )
       202           O   tau( 202) = (  0.6250000  0.7500000  0.6250000  )
       203           O   tau( 203) = (  0.5000000  0.8750000  0.6250000  )
       204           O   tau( 204) = (  0.6250000  0.8750000  0.7500000  )
       205           O   tau( 205) = (  0.5000000  0.8750000  0.8750000  )
       206           O   tau( 206) = (  0.8750000  0.1250000  0.0000000  )
       207           O   tau( 207) = (  0.8750000  0.0000000  0.1250000  )
       208           O   tau( 208) = (  0.7500000  0.3750000  0.3750000  )
       209           O   tau( 209) = (  0.7500000  0.1250000  0.1250000  )
       210           O   tau( 210) = (  0.8750000  0.0000000  0.3750000  )
       211           O   tau( 211) = (  0.7500000  0.1250000  0.3750000  )
       212           O   tau( 212) = (  0.8750000  0.1250000  0.5000000  )
       213           O   tau( 213) = (  0.8750000  0.0000000  0.6250000  )
       214           O   tau( 214) = (  0.7500000  0.1250000  0.6250000  )
       215           O   tau( 215) = (  0.8750000  0.1250000  0.7500000  )
       216           O   tau( 216) = (  0.8750000  0.0000000  0.8750000  )
       217           O   tau( 217) = (  0.7500000  0.1250000  0.8750000  )
       218           O   tau( 218) = (  0.8750000  0.3750000  0.0000000  )
       219           O   tau( 219) = (  0.8750000  0.2500000  0.1250000  )
       220           O   tau( 220) = (  0.7500000  0.3750000  0.1250000  )
       221           O   tau( 221) = (  0.8750000  0.3750000  0.2500000  )
       222           O   tau( 222) = (  0.8750000  0.1250000  0.2500000  )
       223           O   tau( 223) = (  0.8750000  0.7500000  0.8750000  )
       224           O   tau( 224) = (  0.2500000  0.8750000  0.8750000  )
       225           O   tau( 225) = (  0.3750000  0.8750000  0.7500000  )
       226           O   tau( 226) = (  0.1250000  0.6250000  0.5000000  )
       227           O   tau( 227) = (  0.1250000  0.5000000  0.6250000  )
       228           O   tau( 228) = (  0.0000000  0.6250000  0.6250000  )
       229           O   tau( 229) = (  0.1250000  0.6250000  0.7500000  )
       230           O   tau( 230) = (  0.1250000  0.5000000  0.8750000  )
       231           O   tau( 231) = (  0.0000000  0.6250000  0.8750000  )
       232           O   tau( 232) = (  0.1250000  0.8750000  0.0000000  )
       233           O   tau( 233) = (  0.1250000  0.7500000  0.1250000  )
       234           O   tau( 234) = (  0.0000000  0.8750000  0.1250000  )
       235           O   tau( 235) = (  0.1250000  0.8750000  0.2500000  )
       236           O   tau( 236) = (  0.1250000  0.7500000  0.3750000  )
       237           O   tau( 237) = (  0.0000000  0.8750000  0.3750000  )
       238           O   tau( 238) = (  0.0000000  0.6250000  0.3750000  )
       239           O   tau( 239) = (  0.1250000  0.8750000  0.5000000  )
       240           O   tau( 240) = (  0.0000000  0.8750000  0.6250000  )
       241           O   tau( 241) = (  0.1250000  0.8750000  0.7500000  )
       242           O   tau( 242) = (  0.3750000  0.7500000  0.8750000  )
       243           O   tau( 243) = (  0.0000000  0.8750000  0.8750000  )
       244           O   tau( 244) = (  0.3750000  0.1250000  0.0000000  )
       245           O   tau( 245) = (  0.3750000  0.0000000  0.1250000  )
       246           O   tau( 246) = (  0.2500000  0.1250000  0.1250000  )
       247           O   tau( 247) = (  0.3750000  0.1250000  0.2500000  )
       248           O   tau( 248) = (  0.3750000  0.0000000  0.3750000  )
       249           O   tau( 249) = (  0.2500000  0.1250000  0.3750000  )
       250           O   tau( 250) = (  0.3750000  0.1250000  0.5000000  )
       251           O   tau( 251) = (  0.3750000  0.0000000  0.6250000  )
       252           O   tau( 252) = (  0.1250000  0.7500000  0.6250000  )
       253           O   tau( 253) = (  0.2500000  0.1250000  0.6250000  )
       254           O   tau( 254) = (  0.1250000  0.5000000  0.3750000  )
       255           O   tau( 255) = (  0.0000000  0.6250000  0.1250000  )
       256           O   tau( 256) = (  0.1250000  0.1250000  0.0000000  )
       257           O   tau( 257) = (  0.1250000  0.0000000  0.1250000  )
       258           O   tau( 258) = (  0.0000000  0.1250000  0.1250000  )
       259           O   tau( 259) = (  0.1250000  0.1250000  0.2500000  )
       260           O   tau( 260) = (  0.1250000  0.0000000  0.3750000  )
       261           O   tau( 261) = (  0.0000000  0.1250000  0.3750000  )
       262           O   tau( 262) = (  0.1250000  0.1250000  0.5000000  )
       263           O   tau( 263) = (  0.1250000  0.0000000  0.6250000  )
       264           O   tau( 264) = (  0.0000000  0.1250000  0.6250000  )
       265           O   tau( 265) = (  0.1250000  0.1250000  0.7500000  )
       266           O   tau( 266) = (  0.1250000  0.0000000  0.8750000  )
       267           O   tau( 267) = (  0.0000000  0.1250000  0.8750000  )
       268           O   tau( 268) = (  0.1250000  0.6250000  0.2500000  )
       269           O   tau( 269) = (  0.1250000  0.3750000  0.0000000  )
       270           O   tau( 270) = (  0.0000000  0.3750000  0.1250000  )
       271           O   tau( 271) = (  0.1250000  0.3750000  0.2500000  )
       272           O   tau( 272) = (  0.1250000  0.2500000  0.3750000  )
       273           O   tau( 273) = (  0.0000000  0.3750000  0.3750000  )
       274           O   tau( 274) = (  0.1250000  0.3750000  0.5000000  )
       275           O   tau( 275) = (  0.1250000  0.2500000  0.6250000  )
       276           O   tau( 276) = (  0.0000000  0.3750000  0.6250000  )
       277           O   tau( 277) = (  0.1250000  0.3750000  0.7500000  )
       278           O   tau( 278) = (  0.1250000  0.2500000  0.8750000  )
       279           O   tau( 279) = (  0.0000000  0.3750000  0.8750000  )
       280           O   tau( 280) = (  0.1250000  0.6250000  0.0000000  )
       281           O   tau( 281) = (  0.1250000  0.5000000  0.1250000  )
       282           O   tau( 282) = (  0.1250000  0.2500000  0.1250000  )
       283           O   tau( 283) = (  0.3750000  0.1250000  0.7500000  )
       284           O   tau( 284) = (  0.1250000  0.7500000  0.8750000  )
       285           O   tau( 285) = (  0.2500000  0.1250000  0.8750000  )
       286           O   tau( 286) = (  0.2500000  0.3750000  0.8750000  )
       287           O   tau( 287) = (  0.3750000  0.6250000  0.0000000  )
       288           O   tau( 288) = (  0.3750000  0.5000000  0.1250000  )
       289           O   tau( 289) = (  0.2500000  0.6250000  0.1250000  )
       290           O   tau( 290) = (  0.3750000  0.6250000  0.2500000  )
       291           O   tau( 291) = (  0.3750000  0.0000000  0.8750000  )
       292           O   tau( 292) = (  0.2500000  0.6250000  0.3750000  )
       293           O   tau( 293) = (  0.3750000  0.6250000  0.5000000  )
       294           O   tau( 294) = (  0.3750000  0.5000000  0.6250000  )
       295           O   tau( 295) = (  0.2500000  0.6250000  0.6250000  )
       296           O   tau( 296) = (  0.3750000  0.2500000  0.8750000  )
       297           O   tau( 297) = (  0.3750000  0.6250000  0.7500000  )
       298           O   tau( 298) = (  0.2500000  0.6250000  0.8750000  )
       299           O   tau( 299) = (  0.3750000  0.8750000  0.0000000  )
       300           O   tau( 300) = (  0.3750000  0.7500000  0.1250000  )
       301           O   tau( 301) = (  0.2500000  0.8750000  0.1250000  )
       302           O   tau( 302) = (  0.3750000  0.8750000  0.2500000  )
       303           O   tau( 303) = (  0.3750000  0.7500000  0.3750000  )
       304           O   tau( 304) = (  0.2500000  0.8750000  0.3750000  )
       305           O   tau( 305) = (  0.3750000  0.8750000  0.5000000  )
       306           O   tau( 306) = (  0.3750000  0.7500000  0.6250000  )
       307           O   tau( 307) = (  0.2500000  0.8750000  0.6250000  )
       308           O   tau( 308) = (  0.3750000  0.5000000  0.8750000  )
       309           O   tau( 309) = (  0.3750000  0.3750000  0.7500000  )
       310           O   tau( 310) = (  0.3750000  0.5000000  0.3750000  )
       311           O   tau( 311) = (  0.7500000  0.8750000  0.8750000  )
       312           O   tau( 312) = (  0.2500000  0.3750000  0.6250000  )
       313           O   tau( 313) = (  0.3750000  0.3750000  0.0000000  )
       314           O   tau( 314) = (  0.3750000  0.2500000  0.6250000  )
       315           O   tau( 315) = (  0.3750000  0.3750000  0.2500000  )
       316           O   tau( 316) = (  0.3750000  0.3750000  0.5000000  )
       317           O   tau( 317) = (  0.2500000  0.3750000  0.3750000  )
       318           O   tau( 318) = (  0.3750000  0.2500000  0.3750000  )
       319           O   tau( 319) = (  0.2500000  0.3750000  0.1250000  )
       320           O   tau( 320) = (  0.3750000  0.2500000  0.1250000  )

     number of k points=     1
                       cart. coord. in units 2pi/alat
        k(    1) = (   0.0000000   0.0000000   0.0000000), wk =   2.0000000

                       cryst. coord.
        k(    1) = (   0.0000000   0.0000000   0.0000000), wk =   2.0000000

     Dense  grid:  2711337 G-vectors     FFT dimensions: ( 180, 180, 180)

     Smooth grid:   958091 G-vectors     FFT dimensions: ( 125, 125, 125)

     Estimated max dynamical RAM per process >     132.40MB

     Estimated total allocated dynamical RAM >  237262.42MB

     Check: negative/imaginary core charge=   -0.000008    0.000000

     Initial potential from superposition of free atoms
     Check: negative starting charge=   -0.060831

     starting charge 2470.92180, renormalised to 2560.00000

     negative rho (up, down):  6.302E-02 0.000E+00
     Starting wfc are 1408 randomized atomic wfcs

     total cpu time spent up to now is       32.5 secs

     per-process dynamical memory:   127.7 Mb

     Self-consistent Calculation

     iteration #  1     ecut=    40.00 Ry     beta=0.70
     Davidson diagonalization with overlap
     ethr =  1.00E-02,  avg # of iterations =  8.0

     negative rho (up, down):  1.515E-01 0.000E+00

     total cpu time spent up to now is      158.6 secs

     total energy              =  -17141.45831690 Ry
     Harris-Foulkes estimate   =  -17182.83406006 Ry
     estimated scf accuracy    <      52.01092567 Ry

     iteration #  2     ecut=    40.00 Ry     beta=0.70
     Davidson diagonalization with overlap
     ethr =  2.03E-03,  avg # of iterations =  6.0

     total cpu time spent up to now is      271.8 secs

     total energy              =  -17058.06086439 Ry
     Harris-Foulkes estimate   =  -17232.89624552 Ry
     estimated scf accuracy    <     760.83978282 Ry

     iteration #  3     ecut=    40.00 Ry     beta=0.70
     Davidson diagonalization with overlap
     ethr =  2.03E-03,  avg # of iterations =  6.0

     negative rho (up, down):  7.648E-03 0.000E+00

     total cpu time spent up to now is      376.6 secs

     total energy              =  -17159.16007626 Ry
     Harris-Foulkes estimate   =  -17165.45127801 Ry
     estimated scf accuracy    <      13.06618690 Ry

     iteration #  4     ecut=    40.00 Ry     beta=0.70
     Davidson diagonalization with overlap
     ethr =  5.10E-04,  avg # of iterations = 14.0

     negative rho (up, down):  9.311E-03 0.000E+00

     total cpu time spent up to now is      501.1 secs

     total energy              =  -17153.19147371 Ry
     Harris-Foulkes estimate   =  -17182.49524702 Ry
     estimated scf accuracy    <     476.73882638 Ry

     iteration #  5     ecut=    40.00 Ry     beta=0.70
     Davidson diagonalization with overlap
     ethr =  5.10E-04,  avg # of iterations =  5.0

     negative rho (up, down):  7.519E-03 0.000E+00

     total cpu time spent up to now is      592.8 secs

     total energy              =  -17173.12082603 Ry
     Harris-Foulkes estimate   =  -17175.39400193 Ry
     estimated scf accuracy    <      13.87308733 Ry

     iteration #  6     ecut=    40.00 Ry     beta=0.70
     Davidson diagonalization with overlap
     ethr =  5.10E-04,  avg # of iterations =  3.0

     negative rho (up, down):  1.980E-02 0.000E+00

     total cpu time spent up to now is      654.4 secs

     total energy              =  -17172.08281005 Ry
     Harris-Foulkes estimate   =  -17173.67321140 Ry
     estimated scf accuracy    <       7.96932621 Ry

     iteration #  7     ecut=    40.00 Ry     beta=0.70
     Davidson diagonalization with overlap
     ethr =  3.11E-04,  avg # of iterations =  3.0

     negative rho (up, down):  2.905E-02 0.000E+00

     total cpu time spent up to now is      719.4 secs

     total energy              =  -17172.18197999 Ry
     Harris-Foulkes estimate   =  -17172.60495735 Ry
     estimated scf accuracy    <       2.41175063 Ry

     iteration #  8     ecut=    40.00 Ry     beta=0.70
     Davidson diagonalization with overlap
     ethr =  9.42E-05,  avg # of iterations =  3.0

     negative rho (up, down):  4.335E-02 0.000E+00

     total cpu time spent up to now is      784.3 secs

     total energy              =  -17172.09326742 Ry
     Harris-Foulkes estimate   =  -17172.34938407 Ry
     estimated scf accuracy    <       0.83582355 Ry

     iteration #  9     ecut=    40.00 Ry     beta=0.70
     Davidson diagonalization with overlap
     ethr =  3.26E-05,  avg # of iterations =  3.0

     negative rho (up, down):  4.880E-02 0.000E+00

     total cpu time spent up to now is      857.0 secs

     total energy              =  -17172.20601727 Ry
     Harris-Foulkes estimate   =  -17172.22804900 Ry
     estimated scf accuracy    <       0.08756187 Ry

     iteration # 10     ecut=    40.00 Ry     beta=0.70
     Davidson diagonalization with overlap
     ethr =  3.42E-06,  avg # of iterations =  4.0

     negative rho (up, down):  5.145E-02 0.000E+00

     total cpu time spent up to now is      936.8 secs

     total energy              =  -17172.21061186 Ry
     Harris-Foulkes estimate   =  -17172.22471850 Ry
     estimated scf accuracy    <       0.06761134 Ry

     iteration # 11     ecut=    40.00 Ry     beta=0.70
     Davidson diagonalization with overlap
     ethr =  2.64E-06,  avg # of iterations =  3.0

     negative rho (up, down):  5.305E-02 0.000E+00

     total cpu time spent up to now is     1004.4 secs

     total energy              =  -17172.21428271 Ry
     Harris-Foulkes estimate   =  -17172.21672519 Ry
     estimated scf accuracy    <       0.01996378 Ry

     iteration # 12     ecut=    40.00 Ry     beta=0.70
     Davidson diagonalization with overlap
     ethr =  7.80E-07,  avg # of iterations =  3.0

     negative rho (up, down):  5.352E-02 0.000E+00

     total cpu time spent up to now is     1072.3 secs

     total energy              =  -17172.21441135 Ry
     Harris-Foulkes estimate   =  -17172.21590963 Ry
     estimated scf accuracy    <       0.01403868 Ry

     iteration # 13     ecut=    40.00 Ry     beta=0.70
     Davidson diagonalization with overlap
     ethr =  5.48E-07,  avg # of iterations =  3.0

     negative rho (up, down):  5.581E-02 0.000E+00

     total cpu time spent up to now is     1136.6 secs

     total energy              =  -17172.20810902 Ry
     Harris-Foulkes estimate   =  -17172.21519172 Ry
     estimated scf accuracy    <       0.00964615 Ry

     iteration # 14     ecut=    40.00 Ry     beta=0.70
     Davidson diagonalization with overlap
     ethr =  3.77E-07,  avg # of iterations =  4.0

     negative rho (up, down):  5.493E-02 0.000E+00

     total cpu time spent up to now is     1230.0 secs

     total energy              =  -17172.20695281 Ry
     Harris-Foulkes estimate   =  -17172.22176689 Ry
     estimated scf accuracy    <       0.05018700 Ry

     iteration # 15     ecut=    40.00 Ry     beta=0.70
     Davidson diagonalization with overlap
     ethr =  3.77E-07,  avg # of iterations =  4.0

     negative rho (up, down):  5.448E-02 0.000E+00

     total cpu time spent up to now is     1318.8 secs

     total energy              =  -17172.21345123 Ry
     Harris-Foulkes estimate   =  -17172.21377073 Ry
     estimated scf accuracy    <       0.00083079 Ry

     iteration # 16     ecut=    40.00 Ry     beta=0.70
     Davidson diagonalization with overlap
     ethr =  3.25E-08,  avg # of iterations =  4.0

     negative rho (up, down):  5.448E-02 0.000E+00

     total cpu time spent up to now is     1399.4 secs

     total energy              =  -17172.21358294 Ry
     Harris-Foulkes estimate   =  -17172.21369172 Ry
     estimated scf accuracy    <       0.00030870 Ry

     iteration # 17     ecut=    40.00 Ry     beta=0.70
     Davidson diagonalization with overlap
     ethr =  1.21E-08,  avg # of iterations =  3.0

     negative rho (up, down):  5.449E-02 0.000E+00

     total cpu time spent up to now is     1475.2 secs

     total energy              =  -17172.21363528 Ry
     Harris-Foulkes estimate   =  -17172.21364483 Ry
     estimated scf accuracy    <       0.00002343 Ry

     iteration # 18     ecut=    40.00 Ry     beta=0.70
     Davidson diagonalization with overlap
     ethr =  9.15E-10,  avg # of iterations =  4.0

     negative rho (up, down):  5.449E-02 0.000E+00

     total cpu time spent up to now is     1561.1 secs

     total energy              =  -17172.21363878 Ry
     Harris-Foulkes estimate   =  -17172.21364546 Ry
     estimated scf accuracy    <       0.00002063 Ry

     iteration # 19     ecut=    40.00 Ry     beta=0.70
     Davidson diagonalization with overlap
     ethr =  8.06E-10,  avg # of iterations =  3.0

     negative rho (up, down):  5.449E-02 0.000E+00

     total cpu time spent up to now is     1635.7 secs

     total energy              =  -17172.21364185 Ry
     Harris-Foulkes estimate   =  -17172.21364225 Ry
     estimated scf accuracy    <       0.00000095 Ry

     iteration # 20     ecut=    40.00 Ry     beta=0.70
     Davidson diagonalization with overlap
     ethr =  3.73E-11,  avg # of iterations =  4.0

     negative rho (up, down):  5.449E-02 0.000E+00

     total cpu time spent up to now is     1726.4 secs

     total energy              =  -17172.21364208 Ry
     Harris-Foulkes estimate   =  -17172.21364231 Ry
     estimated scf accuracy    <       0.00000069 Ry

     iteration # 21     ecut=    40.00 Ry     beta=0.70
     Davidson diagonalization with overlap
     ethr =  2.71E-11,  avg # of iterations =  3.0

     negative rho (up, down):  5.449E-02 0.000E+00

     total cpu time spent up to now is     1801.9 secs

     total energy              =  -17172.21364219 Ry
     Harris-Foulkes estimate   =  -17172.21364220 Ry
     estimated scf accuracy    <       0.00000004 Ry

     iteration # 22     ecut=    40.00 Ry     beta=0.70
     Davidson diagonalization with overlap
     ethr =  1.42E-12,  avg # of iterations =  4.0

     negative rho (up, down):  5.449E-02 0.000E+00

     total cpu time spent up to now is     1899.9 secs

     total energy              =  -17172.21364219 Ry
     Harris-Foulkes estimate   =  -17172.21364222 Ry
     estimated scf accuracy    <       0.00000009 Ry

     iteration # 23     ecut=    40.00 Ry     beta=0.70
     Davidson diagonalization with overlap
     ethr =  1.42E-12,  avg # of iterations =  4.0

     negative rho (up, down):  5.449E-02 0.000E+00

     total cpu time spent up to now is     1981.4 secs

     total energy              =  -17172.21364220 Ry
     Harris-Foulkes estimate   =  -17172.21364220 Ry
     estimated scf accuracy    <          2.2E-09 Ry

     iteration # 24     ecut=    40.00 Ry     beta=0.70
     Davidson diagonalization with overlap
     ethr =  1.00E-13,  avg # of iterations =  4.0

     negative rho (up, down):  5.449E-02 0.000E+00

     total cpu time spent up to now is     2069.0 secs

     total energy              =  -17172.21364220 Ry
     Harris-Foulkes estimate   =  -17172.21364220 Ry
     estimated scf accuracy    <          2.3E-09 Ry

     iteration # 25     ecut=    40.00 Ry     beta=0.70
     Davidson diagonalization with overlap
     ethr =  1.00E-13,  avg # of iterations =  3.0

     negative rho (up, down):  5.449E-02 0.000E+00

     total cpu time spent up to now is     2144.2 secs

     End of self-consistent calculation

          k = 0.0000 0.0000 0.0000 (119825 PWs)   bands (ev):

   -46.5546 -46.5543 -46.5543 -46.5543 -46.5543 -46.5543 -46.5543 -46.5540
   -46.5540 -46.5540 -46.5540 -46.5540 -46.5540 -46.5540 -46.5540 -46.5540
   -46.5540 -46.5540 -46.5540 -46.5540 -46.5540 -46.5540 -46.5537 -46.5537
   -46.5537 -46.5537 -46.5537 -46.5537 -46.5537 -46.5537 -46.5537 -46.5537
   -46.5537 -46.5537 -46.5537 -46.5537 -46.5537 -46.5537 -46.5537 -46.5537
   -46.5537 -46.5537 -46.5534 -46.5534 -46.5534 -46.5534 -46.5534 -46.5534
   -46.5534 -46.5534 -46.5534 -46.5534 -46.5534 -46.5534 -46.5534 -46.5534
   -46.5534 -46.5531 -46.5531 -46.5531 -46.5531 -46.5531 -46.5531 -46.5527
   -22.8161 -22.8161 -22.8161 -22.8145 -22.8145 -22.8145 -22.8145 -22.8145
   -22.8145 -22.8145 -22.8145 -22.8145 -22.8145 -22.8145 -22.8145 -22.8131
   -22.8131 -22.8131 -22.8131 -22.8131 -22.8131 -22.8131 -22.8131 -22.8131
   -22.8131 -22.8131 -22.8131 -22.8129 -22.8129 -22.8129 -22.8129 -22.8129
   -22.8129 -22.8117 -22.8117 -22.8117 -22.8117 -22.8117 -22.8117 -22.8117
   -22.8117 -22.8117 -22.8117 -22.8117 -22.8117 -22.8105 -22.8105 -22.8105
   -22.7927 -22.7927 -22.7927 -22.7927 -22.7927 -22.7927 -22.7918 -22.7918
   -22.7918 -22.7918 -22.7918 -22.7918 -22.7918 -22.7918 -22.7918 -22.7918
   -22.7918 -22.7918 -22.7911 -22.7911 -22.7911 -22.7911 -22.7911 -22.7911
   -22.7911 -22.7911 -22.7911 -22.7911 -22.7911 -22.7911 -22.7908 -22.7908
   -22.7908 -22.7908 -22.7907 -22.7907 -22.7907 -22.7907 -22.7901 -22.7901
   -22.7901 -22.7901 -22.7901 -22.7901 -22.7901 -22.7901 -22.7901 -22.7901
   -22.7901 -22.7901 -22.7900 -22.7900 -22.7900 -22.7900 -22.7900 -22.7900
   -22.7900 -22.7900 -22.7900 -22.7900 -22.7900 -22.7900 -22.7900 -22.7900
   -22.7900 -22.7900 -22.7892 -22.7892 -22.7892 -22.7892 -22.7892 -22.7892
   -22.7892 -22.7892 -22.7892 -22.7892 -22.7892 -22.7892 -22.7889 -22.7889
   -22.7889 -22.7889 -22.7889 -22.7889 -22.7889 -22.7889 -22.7889 -22.7889
   -22.7889 -22.7889 -22.7880 -22.7880 -22.7880 -22.7880 -22.7880 -22.7880
   -22.7691 -22.7691 -22.7691 -22.7681 -22.7681 -22.7681 -22.7681 -22.7681
   -22.7681 -22.7681 -22.7681 -22.7681 -22.7681 -22.7681 -22.7681 -22.7672
   -22.7672 -22.7672 -22.7672 -22.7672 -22.7672 -22.7672 -22.7672 -22.7672
   -22.7672 -22.7672 -22.7672 -22.7671 -22.7671 -22.7671 -22.7671 -22.7671
   -22.7671 -22.7662 -22.7662 -22.7662 -22.7662 -22.7662 -22.7662 -22.7662
   -22.7662 -22.7662 -22.7662 -22.7662 -22.7662 -22.7652 -22.7652 -22.7652
   -14.5785 -14.5225 -14.5225 -14.5225 -14.5225 -14.5225 -14.5225 -14.4761
   -14.4761 -14.4761 -14.4761 -14.4761 -14.4761 -14.4761 -14.4761 -14.4761
   -14.4761 -14.4761 -14.4761 -14.4650 -14.4650 -14.4650 -14.4357 -14.4357
   -14.4357 -14.4357 -14.4357 -14.4357 -14.4357 -14.4357 -14.4286 -14.4286
   -14.4286 -14.4286 -14.4286 -14.4286 -14.4286 -14.4286 -14.4286 -14.4286
   -14.4286 -14.4286 -14.3945 -14.3945 -14.3945 -14.3945 -14.3945 -14.3945
   -14.3945 -14.3945 -14.3945 -14.3945 -14.3945 -14.3945 -14.3914 -14.3914
   -14.3914 -14.3599 -14.3599 -14.3599 -14.3599 -14.3599 -14.3599 -14.3279
    -6.9049  -6.9049  -6.9049  -6.7602  -6.7602  -6.7602  -6.7602  -6.7602
    -6.7602  -6.6965  -6.6552  -6.6552  -6.6552  -6.6552  -6.6552  -6.6552
    -6.6552  -6.6552  -6.6552  -6.6552  -6.6552  -6.6552  -6.6511  -6.6511
    -6.6511  -6.6511  -6.6511  -6.6511  -6.6511  -6.6511  -6.6511  -6.6511
    -6.6511  -6.6511  -6.4849  -6.4849  -6.4849  -6.4849  -6.4849  -6.4849
    -6.4849  -6.4849  -6.3957  -6.3957  -6.3957  -6.3957  -6.3957  -6.3957
    -6.3957  -6.3957  -6.3957  -6.3957  -6.3957  -6.3957  -6.3366  -6.3366
    -6.3366  -6.0775  -6.0775  -6.0775  -6.0775  -6.0775  -6.0775  -6.0189
    -6.0189  -6.0031  -6.0031  -6.0031  -6.0031  -6.0031  -6.0031  -5.9946
    -5.9946  -5.9946  -5.9946  -5.9946  -5.9946  -5.9946  -5.9946  -5.9946
    -5.9946  -5.9946  -5.9946  -5.9872  -5.9872  -5.9872  -5.9659  -5.9659
    -5.9659  -5.9659  -5.9659  -5.9659  -5.9527  -5.9527  -5.9527  -5.9527
    -5.9527  -5.9527  -5.9527  -5.9527  -5.9527  -5.9527  -5.9527  -5.9527
    -5.9463  -5.9463  -5.9463  -5.9463  -5.9463  -5.9463  -5.9463  -5.9463
    -5.9463  -5.9463  -5.9463  -5.9463  -5.9463  -5.9463  -5.9463  -5.9463
    -5.9346  -5.9346  -5.9346  -5.9346  -5.9346  -5.9346  -5.9346  -5.9346
    -5.9346  -5.9346  -5.9346  -5.9346  -5.9323  -5.9323  -5.9323  -5.9323
    -5.9323  -5.9323  -5.8963  -5.8963  -5.8963  -5.8963  -5.8963  -5.8963
    -5.8963  -5.8963  -5.8963  -5.8963  -5.8963  -5.8963  -5.8849  -5.8849
    -5.8849  -5.8849  -5.8849  -5.8849  -5.8849  -5.8849  -5.8849  -5.8849
    -5.8849  -5.8849  -5.8656  -5.8656  -5.8656  -5.8656  -5.8656  -5.8656
    -5.8656  -5.8656  -5.8656  -5.8656  -5.8656  -5.8656  -5.8515  -5.8515
    -5.8515  -5.8515  -5.8515  -5.8515  -5.8515  -5.8515  -5.8515  -5.8515
    -5.8515  -5.8515  -5.7984  -5.7984  -5.7984  -5.7391  -5.7391  -5.7391
    -0.4656  -0.4656  -0.4656  -0.1494  -0.1494  -0.1494  -0.1494  -0.1494
    -0.1494  -0.1494  -0.1494  -0.1494  -0.1494  -0.1494  -0.1494  -0.0667
    -0.0667  -0.0667  -0.0667  -0.0667  -0.0667  -0.0667  -0.0667  -0.0667
    -0.0666  -0.0666  -0.0666   0.0083   0.0083   0.0083   0.0083   0.0083
     0.0083   0.0715   0.0715   0.0715   0.0715   0.0715   0.0715   0.0715
     0.0715   0.0715   0.0715   0.0715   0.0715   0.0715   0.0715   0.0715
     0.0715   0.1098   0.1098   0.1098   0.1098   0.1098   0.1098   0.1098
     0.1098   0.1098   0.1098   0.1098   0.1098   0.1864   0.1864   0.1864
     0.1864   0.1864   0.1864   0.2082   0.2082   0.2082   0.2082   0.2082
     0.2082   0.2082   0.2082   0.2082   0.2082   0.2082   0.2082   0.2238
     0.2238   0.2238   0.2759   0.2759   0.2759   0.2759   0.2759   0.2759
     0.2759   0.2759   0.2759   0.2759   0.2759   0.2759   0.3044   0.3044
     0.3044   0.3044   0.3044   0.3044   0.3044   0.3044   0.3044   0.3044
     0.3044   0.3044   0.3633   0.3633   0.3633   0.3633   0.3633   0.3633
     0.3633   0.3633   0.3633   0.3633   0.3633   0.3633   0.3891   0.3891
     0.3891   0.3891   0.3891   0.3891   0.3917   0.3917   0.3917   0.3917
     0.3917   0.3917   0.3917   0.3917   0.3917   0.3917   0.3917   0.3917
     0.3931   0.3931   0.3931   0.3931   0.3931   0.3931   0.3931   0.3931
     0.3931   0.3931   0.3931   0.3931   0.4242   0.4242   0.4242   0.4242
     0.4242   0.4242   0.4868   0.4868   0.4868   0.4868   0.4868   0.4868
     0.4868   0.4868   0.4868   0.4868   0.4868   0.4868   0.4934   0.4934
     0.4934   0.4934   0.4934   0.4934   0.4934   0.4934   0.4934   0.4934
     0.4934   0.4934   0.5906   0.5906   0.5906   0.6164   0.6164   0.6164
     0.6164   0.6164   0.6164   0.6164   0.6164   0.6201   0.6201   0.6201
     5.6581   5.8373   5.8373   5.8373   5.8373   5.8373   5.8373   5.8486
     5.8486   5.8486   6.0289   6.0289   6.0289   6.0289   6.0289   6.0289
     6.0289   6.0289   6.0289   6.0289   6.0289   6.0289   6.0643   6.0643
     6.0643   6.0643   6.0643   6.0643   6.0643   6.0643   6.0643   6.0643
     6.0643   6.0643   6.1438   6.1438   6.1438   6.1515   6.1515   6.1515
     6.2999   6.2999   6.2999   6.3079   6.3079   6.3079   6.3079   6.3079
     6.3079   6.3160   6.3160   6.4331   6.4331   6.4331   6.4331   6.4331
     6.4331   6.4331   6.4331   6.6572   6.6572   6.6572   6.6572   6.6572
     6.6572   6.6572   6.6572   6.6572   6.6572   6.6572   6.6572   6.7632
     6.7632   6.7632   6.7632   6.7632   6.7632   6.7632   6.7632   6.7632
     6.7632   6.7632   6.7632   6.8749   6.8749   6.8749   6.8749   6.8749
     6.8749   6.8749   6.8749   6.8749   6.8749   6.8749   6.8749   6.9321
     6.9321   6.9321   6.9321   6.9321   6.9321   6.9321   6.9321   6.9321
     6.9321   6.9321   6.9321   6.9507   6.9507   6.9507   6.9507   6.9507
     6.9507   6.9507   6.9507   6.9507   6.9507   6.9507   6.9507   6.9623
     6.9623   6.9623   6.9623   6.9623   6.9623   6.9940   6.9940   6.9940
     6.9940   6.9940   6.9940   7.0590   7.0590   7.0590   7.0590   7.0590
     7.0590   7.0590   7.0590   7.0590   7.0590   7.0590   7.0590   7.0815
     7.0815   7.0815   7.0815   7.0815   7.0815   7.0815   7.0815   7.0815
     7.0815   7.0815   7.0815   7.0815   7.0815   7.0815   7.0815   7.1090
     7.1090   7.1090   7.1090   7.1090   7.1090   7.1090   7.1090   7.1090
     7.1090   7.1090   7.1090   7.1350   7.1350   7.1350   7.1350   7.1350
     7.1350   7.3794   7.3794   7.3794   7.3794   7.3794   7.3794   7.4219
     7.4219   7.4219   7.4219   7.4219   7.4219   7.4219   7.4219   7.4219
     7.4219   7.4219   7.4219   7.4668   7.4668   7.4668   7.4668   7.4668
     7.4668   7.4668   7.4668   7.4668   7.4668   7.4668   7.4668   7.4870
     7.4870   7.4870   7.4870   7.4870   7.4870   7.6050   7.6050   7.6050
     7.6050   7.6050   7.6050   7.6050   7.6050   7.6076   7.6076   7.6076
     7.6076   7.6076   7.6076   7.6076   7.6076   7.6076   7.6076   7.6076
     7.6076   7.6428   7.6428   7.6428   7.6428   7.6428   7.6428   7.6428
     7.6428   7.6428   7.6428   7.6428   7.6428   7.6662   7.6662   7.6662
     7.6662   7.6662   7.6662   7.6662   7.6662   7.6662   7.6662   7.6662
     7.6662   7.7018   7.7018   7.7018   7.7018   7.7018   7.7018   7.7018
     7.7018   7.7018   7.7018   7.7018   7.7018   7.7350   7.7350   7.7350
     7.7985   7.7985   7.7985   7.7985   7.7985   7.7985   7.7985   7.7985
     7.7985   7.7985   7.7985   7.7985   7.7985   7.7985   7.7985   7.7985
     7.8103   7.8103   7.8103   7.8745   7.8745   7.8745   7.8745   7.8745
     7.8745   7.8745   7.8745   7.8745   7.8745   7.8745   7.8745   7.9705
     7.9705   7.9705   7.9705   7.9705   7.9705   7.9705   7.9705   7.9705
     7.9705   7.9705   7.9705   8.0890   8.0890   8.0890   8.0890   8.0890
     8.0890   8.0890   8.0890   8.0890   8.0890   8.0890   8.0890   8.1988
     8.1988   8.1988   8.2565   8.2565   8.2565   8.2871   8.2871   8.2871
     8.2871   8.2871   8.2871   8.3839   8.3839   8.3839   8.5265   8.5265
     8.5265   8.5265   8.5265   8.5265   8.5265   8.5265   8.5265   8.5265
     8.5265   8.5265   8.5946   8.5946   8.5946   8.5946   8.5946   8.5946
     8.6422   8.6422   8.6422   8.6422   8.6422   8.6422   8.6422   8.6422
     8.6422   8.6422   8.6422   8.6422   8.7551   8.7551   8.7551   8.7551
     8.7551   8.7551   8.7551   8.7551   8.7551   8.7551   8.7551   8.7551
     8.8235   8.8235   8.8235   8.8235   8.8235   8.8235   8.8235   8.8235
     8.8235   8.8235   8.8235   8.8235   8.8914   8.8914   8.8914   8.8914
     8.8914   8.8914   8.9938   8.9938   8.9938   9.0121   9.0121   9.0121
     9.0121   9.0121   9.0121   9.0121   9.0121   9.0121   9.0121   9.0121
     9.0121   9.0962   9.0962   9.0962   9.0962   9.0962   9.0962   9.0962
     9.0962   9.0962   9.0962   9.0962   9.0962   9.1678   9.1678   9.1678
     9.1678   9.1678   9.1678   9.1678   9.1678   9.1678   9.1678   9.1678
     9.1678   9.2182   9.2182   9.2182   9.2182   9.2182   9.2182   9.2182
     9.2182   9.2182   9.2182   9.2182   9.2182   9.2419   9.2419   9.2419
     9.2419   9.2419   9.2419   9.4032   9.4032   9.4032   9.4032   9.4032
     9.4032   9.4032   9.4032   9.4032   9.4032   9.4032   9.4032   9.4032
     9.4032   9.4032   9.4032   9.4075   9.4075   9.4075   9.4075   9.4075
     9.4075   9.5094   9.5094   9.5094   9.5094   9.5094   9.5094   9.5094
     9.5094   9.5173   9.5173   9.5173   9.5173   9.5173   9.5173   9.5173
     9.5173   9.5173   9.5173   9.5173   9.5173   9.5831   9.5831   9.5831
     9.5831   9.5831   9.5831   9.5831   9.5831   9.5831   9.5831   9.5831
     9.5831   9.6090   9.6090   9.6090   9.6090   9.6090   9.6090   9.6090
     9.6090   9.6090   9.6090   9.6090   9.6090   9.6154   9.6154   9.6154
     9.6154   9.6154   9.6154   9.6155   9.6155   9.6155   9.6155   9.6155
     9.6155   9.6274   9.6274   9.6274   9.6274   9.6274   9.6274   9.6274
     9.6274   9.6274   9.6274   9.6274   9.6274   9.6416   9.6416   9.6416
     9.6416   9.6416   9.6416   9.6416   9.6416   9.6416   9.6416   9.6416
     9.6416   9.9633   9.9633   9.9633  10.0364  10.0364  10.0364  10.0609
    10.0609  10.0609  10.0609  10.0609  10.0609  10.0856  10.0856  10.0856

     occupation numbers 
     1.0000   1.0000   1.0000   1.0000   1.0000   1.0000   1.0000   1.0000
     1.0000   1.0000   1.0000   1.0000   1.0000   1.0000   1.0000   1.0000
     1.0000   1.0000   1.0000   1.0000   1.0000   1.0000   1.0000   1.0000
     1.0000   1.0000   1.0000   1.0000   1.0000   1.0000   1.0000   1.0000
     1.0000   1.0000   1.0000   1.0000   1.0000   1.0000   1.0000   1.0000
     1.0000   1.0000   1.0000   1.0000   1.0000   1.0000   1.0000   1.0000
     1.0000   1.0000   1.0000   1.0000   1.0000   1.0000   1.0000   1.0000
     1.0000   1.0000   1.0000   1.0000   1.0000   1.0000   1.0000   1.0000
     1.0000   1.0000   1.0000   1.0000   1.0000   1.0000   1.0000   1.0000
     1.0000   1.0000   1.0000   1.0000   1.0000   1.0000   1.0000   1.0000
     1.0000   1.0000   1.0000   1.0000   1.0000   1.0000   1.0000   1.0000
     1.0000   1.0000   1.0000   1.0000   1.0000   1.0000   1.0000   1.0000
     1.0000   1.0000   1.0000   1.0000   1.0000   1.0000   1.0000   1.0000
     1.0000   1.0000   1.0000   1.0000   1.0000   1.0000   1.0000   1.0000
     1.0000   1.0000   1.0000   1.0000   1.0000   1.0000   1.0000   1.0000
     1.0000   1.0000   1.0000   1.0000   1.0000   1.0000   1.0000   1.0000
     1.0000   1.0000   1.0000   1.0000   1.0000   1.0000   1.0000   1.0000
     1.0000   1.0000   1.0000   1.0000   1.0000   1.0000   1.0000   1.0000
     1.0000   1.0000   1.0000   1.0000   1.0000   1.0000   1.0000   1.0000
     1.0000   1.0000   1.0000   1.0000   1.0000   1.0000   1.0000   1.0000
     1.0000   1.0000   1.0000   1.0000   1.0000   1.0000   1.0000   1.0000
     1.0000   1.0000   1.0000   1.0000   1.0000   1.0000   1.0000   1.0000
     1.0000   1.0000   1.0000   1.0000   1.0000   1.0000   1.0000   1.0000
     1.0000   1.0000   1.0000   1.0000   1.0000   1.0000   1.0000   1.0000
     1.0000   1.0000   1.0000   1.0000   1.0000   1.0000   1.0000   1.0000
     1.0000   1.0000   1.0000   1.0000   1.0000   1.0000   1.0000   1.0000
     1.0000   1.0000   1.0000   1.0000   1.0000   1.0000   1.0000   1.0000
     1.0000   1.0000   1.0000   1.0000   1.0000   1.0000   1.0000   1.0000
     1.0000   1.0000   1.0000   1.0000   1.0000   1.0000   1.0000   1.0000
     1.0000   1.0000   1.0000   1.0000   1.0000   1.0000   1.0000   1.0000
     1.0000   1.0000   1.0000   1.0000   1.0000   1.0000   1.0000   1.0000
     1.0000   1.0000   1.0000   1.0000   1.0000   1.0000   1.0000   1.0000
     1.0000   1.0000   1.0000   1.0000   1.0000   1.0000   1.0000   1.0000
     1.0000   1.0000   1.0000   1.0000   1.0000   1.0000   1.0000   1.0000
     1.0000   1.0000   1.0000   1.0000   1.0000   1.0000   1.0000   1.0000
     1.0000   1.0000   1.0000   1.0000   1.0000   1.0000   1.0000   1.0000
     1.0000   1.0000   1.0000   1.0000   1.0000   1.0000   1.0000   1.0000
     1.0000   1.0000   1.0000   1.0000   1.0000   1.0000   1.0000   1.0000
     1.0000   1.0000   1.0000   1.0000   1.0000   1.0000   1.0000   1.0000
     1.0000   1.0000   1.0000   1.0000   1.0000   1.0000   1.0000   1.0000
     1.0000   1.0000   1.0000   1.0000   1.0000   1.0000   1.0000   1.0000
     1.0000   1.0000   1.0000   1.0000   1.0000   1.0000   1.0000   1.0000
     1.0000   1.0000   1.0000   1.0000   1.0000   1.0000   1.0000   1.0000
     1.0000   1.0000   1.0000   1.0000   1.0000   1.0000   1.0000   1.0000
     1.0000   1.0000   1.0000   1.0000   1.0000   1.0000   1.0000   1.0000
     1.0000   1.0000   1.0000   1.0000   1.0000   1.0000   1.0000   1.0000
     1.0000   1.0000   1.0000   1.0000   1.0000   1.0000   1.0000   1.0000
     1.0000   1.0000   1.0000   1.0000   1.0000   1.0000   1.0000   1.0000
     1.0000   1.0000   1.0000   1.0000   1.0000   1.0000   1.0000   1.0000
     1.0000   1.0000   1.0000   1.0000   1.0000   1.0000   1.0000   1.0000
     1.0000   1.0000   1.0000   1.0000   1.0000   1.0000   1.0000   1.0000
     1.0000   1.0000   1.0000   1.0000   1.0000   1.0000   1.0000   1.0000
     1.0000   1.0000   1.0000   1.0000   1.0000   1.0000   1.0000   1.0000
     1.0000   1.0000   1.0000   1.0000   1.0000   1.0000   1.0000   1.0000
     1.0000   1.0000   1.0000   1.0000   1.0000   1.0000   1.0000   1.0000
     1.0000   1.0000   1.0000   1.0000   1.0000   1.0000   1.0000   1.0000
     1.0000   1.0000   1.0000   1.0000   1.0000   1.0000   1.0000   1.0000
     1.0000   1.0000   1.0000   1.0000   1.0000   1.0000   1.0000   1.0000
     1.0000   1.0000   1.0000   1.0000   1.0000   1.0000   1.0000   1.0000
     1.0000   1.0000   1.0000   1.0000   1.0000   1.0000   1.0000   1.0000
     1.0000   1.0000   1.0000   1.0000   1.0000   1.0000   1.0000   1.0000
     1.0000   1.0000   1.0000   1.0000   1.0000   1.0000   1.0000   1.0000
     1.0000   1.0000   1.0000   1.0000   1.0000   1.0000   1.0000   1.0000
     1.0000   1.0000   1.0000   1.0000   1.0000   1.0000   1.0000   1.0000
     1.0000   1.0000   1.0000   1.0000   1.0000   1.0000   1.0000   1.0000
     1.0000   1.0000   1.0000   1.0000   1.0000   1.0000   1.0000   1.0000
     1.0000   1.0000   1.0000   1.0000   1.0000   1.0000   1.0000   1.0000
     1.0000   1.0000   1.0000   1.0000   1.0000   1.0000   1.0000   1.0000
     1.0000   1.0000   1.0000   1.0000   1.0000   1.0000   1.0000   1.0000
     1.0000   1.0000   1.0000   1.0000   1.0000   1.0000   1.0000   1.0000
     1.0000   1.0000   1.0000   1.0000   1.0000   1.0000   1.0000   1.0000
     1.0000   1.0000   1.0000   1.0000   1.0000   1.0000   1.0000   1.0000
     1.0000   1.0000   1.0000   1.0000   1.0000   1.0000   1.0000   1.0000
     1.0000   1.0000   1.0000   1.0000   1.0000   1.0000   1.0000   1.0000
     1.0000   1.0000   1.0000   1.0000   1.0000   1.0000   1.0000   1.0000
     1.0000   1.0000   1.0000   1.0000   1.0000   1.0000   1.0000   1.0000
     1.0000   1.0000   1.0000   1.0000   1.0000   1.0000   1.0000   1.0000
     1.0000   1.0000   1.0000   1.0000   1.0000   1.0000   1.0000   1.0000
     1.0000   1.0000   1.0000   1.0000   1.0000   1.0000   1.0000   1.0000
     1.0000   1.0000   1.0000   1.0000   1.0000   1.0000   1.0000   1.0000
     1.0000   1.0000   1.0000   1.0000   1.0000   1.0000   1.0000   1.0000
     1.0000   1.0000   1.0000   1.0000   1.0000   1.0000   1.0000   1.0000
     1.0000   1.0000   1.0000   1.0000   1.0000   1.0000   1.0000   1.0000
     1.0000   1.0000   1.0000   1.0000   1.0000   1.0000   1.0000   1.0000
     1.0000   1.0000   1.0000   1.0000   1.0000   1.0000   1.0000   1.0000
     1.0000   1.0000   1.0000   1.0000   1.0000   1.0000   1.0000   1.0000
     1.0000   1.0000   1.0000   1.0000   1.0000   1.0000   1.0000   1.0000
     1.0000   1.0000   1.0000   1.0000   1.0000   1.0000   1.0000   1.0000
     1.0000   1.0000   1.0000   1.0000   1.0000   1.0000   1.0000   1.0000
     1.0000   1.0000   1.0000   1.0000   1.0000   1.0000   1.0000   1.0000
     1.0000   1.0000   1.0000   1.0000   1.0000   1.0000   1.0000   1.0000
     1.0000   1.0000   1.0000   1.0000   1.0000   1.0000   1.0000   1.0000
     1.0000   1.0000   1.0000   1.0000   1.0000   1.0000   1.0000   1.0000
     1.0000   1.0000   1.0000   1.0000   1.0000   1.0000   1.0000   1.0000
     1.0000   1.0000   1.0000   1.0000   1.0000   1.0000   1.0000   1.0000
     1.0000   1.0000   1.0000   1.0000   1.0000   1.0000   1.0000   1.0000
     1.0000   1.0000   1.0000   1.0000   1.0000   1.0000   1.0000   1.0000
     1.0000   1.0000   1.0000   1.0000   1.0000   1.0000   1.0000   1.0000
     1.0000   1.0000   1.0000   1.0000   1.0000   1.0000   1.0000   1.0000
     1.0000   1.0000   1.0000   1.0000   1.0000   1.0000   1.0000   1.0000
     1.0000   1.0000   1.0000   1.0000   1.0000   1.0000   1.0000   1.0000
     1.0000   1.0000   1.0000   1.0000   1.0000   1.0000   1.0000   1.0000
     1.0000   1.0000   1.0000   1.0000   1.0000   1.0000   1.0000   1.0000
     1.0000   1.0000   1.0000   1.0000   1.0000   1.0000   1.0000   1.0000
     1.0000   1.0000   1.0000   1.0000   1.0000   1.0000   1.0000   1.0000
     1.0000   1.0000   1.0000   1.0000   1.0000   1.0000   1.0000   1.0000
     1.0000   1.0000   1.0000   1.0000   1.0000   1.0000   1.0000   1.0000
     1.0000   1.0000   1.0000   1.0000   1.0000   1.0000   1.0000   1.0000
     1.0000   1.0000   1.0000   1.0000   1.0000   1.0000   1.0000   1.0000
     1.0000   1.0000   1.0000   1.0000   1.0000   1.0000   1.0000   1.0000
     1.0000   1.0000   1.0000   1.0000   1.0000   1.0000   1.0000   1.0000
     1.0000   1.0000   1.0000   1.0000   1.0000   1.0000   1.0000   1.0000
     1.0000   1.0000   1.0000   1.0000   1.0000   1.0000   1.0000   1.0000
     1.0000   1.0000   1.0000   1.0000   1.0000   1.0000   1.0000   1.0000
     1.0000   1.0000   1.0000   1.0000   1.0000   1.0000   1.0000   1.0000
     1.0000   1.0000   1.0000   1.0000   1.0000   1.0000   1.0000   1.0000
     1.0000   1.0000   1.0000   1.0000   1.0000   1.0000   1.0000   1.0000
     1.0000   1.0000   1.0000   1.0000   1.0000   1.0000   1.0000   1.0000
     1.0000   1.0000   1.0000   1.0000   1.0000   1.0000   1.0000   1.0000
     1.0000   1.0000   1.0000   1.0000   1.0000   1.0000   1.0000   1.0000
     1.0000   1.0000   1.0000   1.0000   1.0000   1.0000   1.0000   1.0000
     1.0000   1.0000   1.0000   1.0000   1.0000   1.0000   1.0000   1.0000
     1.0000   1.0000   1.0000   1.0000   1.0000   1.0000   1.0000   1.0000
     1.0000   1.0000   1.0000   1.0000   1.0000   1.0000   1.0000   1.0000
     1.0000   1.0000   1.0000   1.0000   1.0000   1.0000   1.0000   1.0000
     1.0000   1.0000   1.0000   1.0000   1.0000   1.0000   1.0000   1.0000
     1.0000   1.0000   1.0000   1.0000   1.0000   1.0000   1.0000   1.0000
     1.0000   1.0000   1.0000   1.0000   1.0000   1.0000   1.0000   1.0000
     1.0000   1.0000   1.0000   1.0000   1.0000   1.0000   1.0000   1.0000
     1.0000   1.0000   1.0000   1.0000   1.0000   1.0000   1.0000   1.0000
     1.0000   1.0000   1.0000   1.0000   1.0000   1.0000   1.0000   1.0000
     1.0000   1.0000   1.0000   1.0000   1.0000   1.0000   1.0000   1.0000
     1.0000   1.0000   1.0000   1.0000   1.0000   1.0000   1.0000   1.0000
     1.0000   1.0000   1.0000   1.0000   1.0000   1.0000   1.0000   1.0000
     1.0000   1.0000   1.0000   1.0000   1.0000   1.0000   1.0000   1.0000
     1.0000   1.0000   1.0000   1.0000   1.0000   1.0000   1.0000   1.0000
     1.0000   1.0000   1.0000   1.0000   1.0000   1.0000   1.0000   1.0000
     1.0000   1.0000   1.0000   1.0000   1.0000   1.0000   1.0000   1.0000
     1.0000   1.0000   1.0000   1.0000   1.0000   1.0000   1.0000   1.0000
     1.0000   1.0000   1.0000   1.0000   1.0000   1.0000   1.0000   1.0000
     1.0000   1.0000   1.0000   1.0000   1.0000   1.0000   1.0000   1.0000
     1.0000   1.0000   1.0000   1.0000   1.0000   1.0000   1.0000   1.0000
     1.0000   1.0000   1.0000   1.0000   1.0000   1.0000   1.0000   1.0000
     1.0000   1.0000   1.0000   1.0000   1.0000   1.0000   1.0000   1.0000
     1.0000   1.0000   1.0000   1.0000   1.0000   1.0000   1.0000   1.0000
     1.0000   1.0000   1.0000   1.0000   1.0000   1.0000   1.0000   1.0000
     1.0000   1.0000   1.0000   1.0000   1.0000   1.0000   1.0000   1.0000
     1.0000   1.0000   1.0000   1.0000   1.0000   1.0000   1.0000   1.0000
     1.0000   1.0000   1.0000   1.0000   1.0000   1.0000   1.0000   1.0000
     1.0000   1.0000   1.0000   1.0000   1.0000   1.0000   1.0000   1.0000
     1.0000   1.0000   1.0000   1.0000   1.0000   1.0000   1.0000   1.0000
     1.0000   1.0000   1.0000   1.0000   1.0000   1.0000   1.0000   1.0000
     1.0000   1.0000   1.0000   1.0000   1.0000   1.0000   1.0000   1.0000
     1.0000   1.0000   1.0000   1.0000   1.0000   1.0000   1.0000   1.0000
     1.0000   1.0000   1.0000   1.0000   1.0000   1.0000   1.0000   1.0000
     1.0000   1.0000   1.0000   1.0000   1.0000   1.0000   1.0000   1.0000
     1.0000   1.0000   1.0000   1.0000   1.0000   1.0000   1.0000   1.0000
     1.0000   1.0000   1.0000   1.0000   1.0000   1.0000   1.0000   1.0000
     1.0000   1.0000   1.0000   1.0000   1.0000   1.0000   1.0000   1.0000
     1.0000   1.0000   1.0000   1.0000   1.0000   1.0000   1.0000   1.0000

     highest occupied level (ev):    10.0856

!    total energy              =  -17172.21364220 Ry
     Harris-Foulkes estimate   =  -17172.21364220 Ry
     estimated scf accuracy    <          3.3E-10 Ry

     The total energy is the sum of the following terms:

     one-electron contribution =   -4782.57408745 Ry
     hartree contribution      =    3866.98843506 Ry
     xc contribution           =   -3042.64354794 Ry
     ewald contribution        =  -13213.98444188 Ry

     convergence has been achieved in  25 iterations
 
     init_run     :     28.25s CPU     28.81s WALL (       1 calls)
     electrons    :   2088.71s CPU   2111.70s WALL (       1 calls)

     Called by init_run:
     wfcinit      :     26.04s CPU     26.44s WALL (       1 calls)
     wfcinit:atom :      0.00s CPU      0.00s WALL (       1 calls)
     wfcinit:wfcr :     26.03s CPU     26.38s WALL (       1 calls)
     potinit      :      0.38s CPU      0.39s WALL (       1 calls)

     Called by electrons:
     c_bands      :   1883.61s CPU   1902.90s WALL (      25 calls)
     sum_band     :    193.52s CPU    197.10s WALL (      25 calls)
     v_of_rho     :      6.76s CPU      6.80s WALL (      26 calls)
     v_h          :      0.65s CPU      0.65s WALL (      26 calls)
     v_xc         :      6.11s CPU      6.14s WALL (      26 calls)
     newd         :      1.78s CPU      1.85s WALL (      26 calls)
     mix_rho      :      1.37s CPU      1.39s WALL (      25 calls)

     Called by c_bands:
     init_us_2    :      0.11s CPU      0.14s WALL (      51 calls)
     cegterg      :   1882.27s CPU   1900.67s WALL (      25 calls)

     Called by sum_band:
     sum_band:bec :      1.70s CPU      1.70s WALL (      25 calls)
     addusdens    :      1.00s CPU      1.01s WALL (      25 calls)

     Called by *egterg:
     h_psi        :   1080.12s CPU   1091.68s WALL (     134 calls)
     s_psi        :     17.95s CPU     20.30s WALL (     134 calls)
     g_psi        :      0.02s CPU      0.02s WALL (     108 calls)
     cdiaghg      :    232.61s CPU    233.06s WALL (     133 calls)
     cegterg:over :     27.92s CPU     31.32s WALL (     108 calls)
     cegterg:upda :    413.64s CPU    414.37s WALL (     108 calls)
     cegterg:last :    114.56s CPU    114.77s WALL (      26 calls)
     cdiaghg:chol :     11.27s CPU     11.41s WALL (     133 calls)
     cdiaghg:inve :      0.63s CPU      0.64s WALL (     133 calls)
     cdiaghg:para :     42.40s CPU     42.50s WALL (     266 calls)

     Called by h_psi:
     h_psi:pot    :   1080.07s CPU   1091.62s WALL (     134 calls)
     h_psi:calbec :     64.50s CPU     71.15s WALL (     134 calls)
     vloc_psi     :    991.29s CPU    993.76s WALL (     134 calls)
     add_vuspsi   :     24.27s CPU     26.71s WALL (     134 calls)

     General routines
     calbec       :     86.10s CPU     94.97s WALL (     159 calls)
     fft          :     10.84s CPU     10.89s WALL (     412 calls)
     ffts         :      1.19s CPU      1.19s WALL (      51 calls)
     fftw         :   1151.52s CPU   1154.34s WALL (  222070 calls)
     interpolate  :      2.53s CPU      2.54s WALL (      51 calls)
 
     Parallel routines
     fft_scatter  :   1126.15s CPU   1128.59s WALL (  222533 calls)
 
     PWSCF        : 35m20.40s CPU    36m 6.48s WALL

 
   This run was terminated on:  15:30:16  10Oct2017            

=------------------------------------------------------------------------------=
   JOB DONE.
=------------------------------------------------------------------------------=
