
     Program PWSCF v.6.1 starts on 10Oct2017 at 10:56:33 

     This program is part of the open-source Quantum ESPRESSO suite
     for quantum simulation of materials; please cite
         "P. Giannozzi et al., J. Phys.:Condens. Matter 21 395502 (2009);
          URL http://www.quantum-espresso.org", 
     in publications or presentations arising from this work. More details at
     http://www.quantum-espresso.org/quote

     Parallel version (MPI & OpenMP), running on     768 processor cores
     Number of MPI processes:                64
     Threads/MPI process:                    12
     R & G space division:  proc/nbgrp/npool/nimage =      64
     Reading input from aiida.in
SIRIUS 4.7, git hash: 1b01d37c88a2dedfa49aacfd9f9576a8abe72195

     Current dimensions of program PWSCF are:
     Max number of different atomic species (ntypx) = 10
     Max number of k-points (npk) =  40000
     Max angular momentum in pseudopotentials (lmaxx) =  3
     Message from routine iosys:
     minimal I/O required, wf_collect reset to FALSE

     Subspace diagonalization in iterative solution of the eigenvalue problem:
     one sub-group per band group will be used
     scalapack distributed-memory algorithm (size of sub-group:  5*  5 procs)


   Info: using nr1, nr2, nr3 values from input
     Found symmetry operation: I + ( -0.5000 -0.5000  0.0000)
     This is a supercell, fractional translations are disabled

     Parallelization info
     --------------------
     sticks:   dense  smooth     PW     G-vecs:    dense   smooth      PW
     Min         367     183     45                42363    14967    1867
     Max         368     184     46                42368    14972    1874
     Sum       23525   11761   2941              2711337   958091  119825



     bravais-lattice index     =            0
     lattice parameter (alat)  =      30.3808  a.u.
     unit-cell volume          =   28041.2070 (a.u.)^3
     number of atoms/cell      =          320
     number of atomic types    =            3
     number of electrons       =      2560.00
     number of Kohn-Sham states=         1280
     kinetic-energy cutoff     =      40.0000  Ry
     charge density cutoff     =     320.0000  Ry
     convergence threshold     =      1.0E-09
     mixing beta               =       0.7000
     number of iterations used =            8  plain     mixing
     Exchange-correlation      =  SLA  PW   PBX  PBC ( 1  4  3  4 0 0)

     celldm(1)=  30.380779  celldm(2)=   0.000000  celldm(3)=   0.000000
     celldm(4)=   0.000000  celldm(5)=   0.000000  celldm(6)=   0.000000

     crystal axes: (cart. coord. in units of alat)
               a(1) = (   1.000000   0.000000   0.000000 )  
               a(2) = (   0.000000   1.000000   0.000000 )  
               a(3) = (   0.000000   0.000000   1.000000 )  

     reciprocal axes: (cart. coord. in units 2 pi/alat)
               b(1) = (  1.000000  0.000000  0.000000 )  
               b(2) = (  0.000000  1.000000  0.000000 )  
               b(3) = (  0.000000  0.000000  1.000000 )  


     PseudoPot. # 1 for Ba read from file:
     ./pseudo/Ba_ONCV_PBE-1.0.upf
     MD5 check sum: 77f30730067903d6b11ccba3a1a50403
     Pseudo is Norm-conserving, Zval = 10.0
     Generated using ONCVPSP code by D. R. Hamann
     Using radial grid of  602 points,  8 beta functions with: 
                l(1) =   0
                l(2) =   0
                l(3) =   1
                l(4) =   1
                l(5) =   2
                l(6) =   2
                l(7) =   3
                l(8) =   3

     PseudoPot. # 2 for O  read from file:
     ./pseudo/O_pbe_v1.2.uspp.F.UPF
     MD5 check sum: 734c27235a0248c51dbae37a1fbe46ec
     Pseudo is Ultrasoft + core correction, Zval =  6.0
     Generated by new atomic code, or converted to UPF format
     Using radial grid of  737 points,  5 beta functions with: 
                l(1) =   0
                l(2) =   0
                l(3) =   1
                l(4) =   1
                l(5) =   2
     Q(r) pseudized with  8 coefficients,  rinner =    0.900   0.900   0.900
                                                       0.900   0.900

     PseudoPot. # 3 for Ti read from file:
     ./pseudo/ti_pbe_v1.4.uspp.F.UPF
     MD5 check sum: 88a00a6731bd790ddea75d31a80cb452
     Pseudo is Ultrasoft + core correction, Zval = 12.0
     Generated by new atomic code, or converted to UPF format
     Using radial grid of  851 points,  6 beta functions with: 
                l(1) =   0
                l(2) =   0
                l(3) =   1
                l(4) =   1
                l(5) =   2
                l(6) =   2
     Q(r) pseudized with  6 coefficients,  rinner =    1.000   1.000   1.000
                                                       1.000   1.000

     atomic species   valence    mass     pseudopotential
        Ba            10.00   137.33000     Ba( 1.00)
        O              6.00    15.99940     O ( 1.00)
        Ti            12.00    47.88000     Ti( 1.00)

     No symmetry found


                                    s                        frac. trans.

      isym =  1     identity                                     

 cryst.   s( 1) = (     1          0          0      )
                  (     0          1          0      )
                  (     0          0          1      )

 cart.    s( 1) = (  1.0000000  0.0000000  0.0000000 )
                  (  0.0000000  1.0000000  0.0000000 )
                  (  0.0000000  0.0000000  1.0000000 )


   Cartesian axes

     site n.     atom                  positions (a.u.)
         1           Ba  tau(   1) = (   0.0000000   0.0000000   0.0000000  )
         2           Ba  tau(   2) = (  15.1903893  15.1903893   0.0000000  )
         3           Ba  tau(   3) = (   0.0000000  22.7855839   7.5951948  )
         4           Ba  tau(   4) = (  22.7855839   0.0000000  22.7855839  )
         5           Ba  tau(   5) = (   7.5951945  15.1903893   0.0000000  )
         6           Ba  tau(   6) = (   0.0000000  22.7855837   0.0000000  )
         7           Ba  tau(   7) = (  15.1903893   7.5951947  22.7855840  )
         8           Ba  tau(   8) = (  22.7855839   7.5951948   0.0000000  )
         9           Ba  tau(   9) = (  22.7855842   0.0000000  15.1903893  )
        10           Ba  tau(  10) = (   0.0000000  15.1903893  22.7855842  )
        11           Ba  tau(  11) = (  22.7855840   7.5951946   7.5951946  )
        12           Ba  tau(  12) = (   0.0000000  15.1903893  15.1903893  )
        13           Ba  tau(  13) = (  15.1903893  22.7855842   0.0000000  )
        14           Ba  tau(  14) = (  22.7855840   7.5951947  15.1903893  )
        15           Ba  tau(  15) = (   0.0000000  15.1903893   7.5951945  )
        16           Ba  tau(  16) = (   7.5951946  15.1903893  15.1903893  )
        17           Ba  tau(  17) = (  22.7855840   7.5951946  22.7855840  )
        18           Ba  tau(  18) = (   7.5951947  15.1903893   7.5951947  )
        19           Ba  tau(  19) = (  15.1903893   7.5951947   7.5951947  )
        20           Ba  tau(  20) = (   7.5951946   7.5951946  22.7855840  )
        21           Ba  tau(  21) = (  22.7855839   0.0000000   7.5951948  )
        22           Ba  tau(  22) = (   7.5951948   7.5951948   0.0000000  )
        23           Ba  tau(  23) = (   7.5951948   0.0000000  22.7855839  )
        24           Ba  tau(  24) = (  15.1903893  15.1903893  22.7855841  )
        25           Ba  tau(  25) = (  15.1903893  22.7855840   7.5951947  )
        26           Ba  tau(  26) = (   7.5951945   0.0000000  15.1903893  )
        27           Ba  tau(  27) = (   7.5951946   7.5951946   7.5951946  )
        28           Ba  tau(  28) = (  15.1903893  22.7855841  15.1903893  )
        29           Ba  tau(  29) = (   0.0000000  22.7855842  15.1903893  )
        30           Ba  tau(  30) = (   7.5951948   0.0000000   7.5951948  )
        31           Ba  tau(  31) = (  15.1903893  22.7855840  22.7855840  )
        32           Ba  tau(  32) = (   7.5951950   0.0000000   0.0000000  )
        33           Ba  tau(  33) = (  15.1903893   0.0000000   0.0000000  )
        34           Ba  tau(  34) = (   7.5951947   7.5951947  15.1903893  )
        35           Ba  tau(  35) = (  22.7855837   0.0000000   0.0000000  )
        36           Ba  tau(  36) = (   0.0000000  22.7855839  22.7855839  )
        37           Ba  tau(  37) = (  15.1903893  15.1903893   7.5951946  )
        38           Ba  tau(  38) = (  15.1903893  15.1903893  15.1903893  )
        39           Ba  tau(  39) = (   0.0000000  15.1903893   0.0000000  )
        40           Ba  tau(  40) = (  15.1903893   7.5951946  15.1903893  )
        41           Ba  tau(  41) = (   7.5951946  22.7855840   7.5951946  )
        42           Ba  tau(  42) = (  22.7855839  22.7855839   0.0000000  )
        43           Ba  tau(  43) = (  22.7855840  22.7855840   7.5951946  )
        44           Ba  tau(  44) = (   7.5951947  22.7855840  15.1903893  )
        45           Ba  tau(  45) = (   0.0000000   7.5951950   0.0000000  )
        46           Ba  tau(  46) = (   0.0000000   0.0000000  15.1903893  )
        47           Ba  tau(  47) = (  22.7855840  15.1903893  22.7855840  )
        48           Ba  tau(  48) = (  15.1903893   0.0000000   7.5951945  )
        49           Ba  tau(  49) = (  15.1903893   0.0000000  22.7855842  )
        50           Ba  tau(  50) = (   0.0000000   7.5951948   7.5951948  )
        51           Ba  tau(  51) = (  22.7855840  22.7855840  15.1903893  )
        52           Ba  tau(  52) = (  15.1903893   0.0000000  15.1903893  )
        53           Ba  tau(  53) = (   7.5951948  22.7855839   0.0000000  )
        54           Ba  tau(  54) = (  22.7855841  15.1903893  15.1903893  )
        55           Ba  tau(  55) = (   0.0000000   0.0000000  22.7855837  )
        56           Ba  tau(  56) = (   0.0000000   7.5951945  15.1903893  )
        57           Ba  tau(  57) = (  22.7855842  15.1903893   0.0000000  )
        58           Ba  tau(  58) = (   7.5951947  15.1903893  22.7855840  )
        59           Ba  tau(  59) = (  22.7855840  15.1903893   7.5951947  )
        60           Ba  tau(  60) = (   7.5951946  22.7855840  22.7855840  )
        61           Ba  tau(  61) = (  15.1903893   7.5951945   0.0000000  )
        62           Ba  tau(  62) = (   0.0000000   0.0000000   7.5951950  )
        63           Ba  tau(  63) = (  22.7855840  22.7855840  22.7855840  )
        64           Ba  tau(  64) = (   0.0000000   7.5951948  22.7855839  )
        65           Ti  tau(  65) = (  11.3927920  26.5831814  11.3927920  )
        66           Ti  tau(  66) = (   3.7975974  11.3927920   3.7975974  )
        67           Ti  tau(  67) = (  26.5831813  18.9879867  26.5831813  )
        68           Ti  tau(  68) = (   3.7975973  11.3927920  11.3927920  )
        69           Ti  tau(  69) = (  26.5831814  18.9879866  18.9879866  )
        70           Ti  tau(  70) = (  18.9879867   3.7975974  26.5831813  )
        71           Ti  tau(  71) = (  11.3927920  26.5831813   3.7975974  )
        72           Ti  tau(  72) = (  11.3927921  11.3927921  11.3927921  )
        73           Ti  tau(  73) = (  11.3927920   3.7975973  18.9879866  )
        74           Ti  tau(  74) = (  18.9879866   3.7975973  18.9879866  )
        75           Ti  tau(  75) = (  26.5831814  26.5831814   3.7975973  )
        76           Ti  tau(  76) = (   3.7975973  11.3927920  18.9879866  )
        77           Ti  tau(  77) = (   3.7975973   3.7975973   3.7975973  )
        78           Ti  tau(  78) = (  26.5831814  26.5831814  26.5831814  )
        79           Ti  tau(  79) = (  18.9879867   3.7975974   3.7975974  )
        80           Ti  tau(  80) = (  11.3927920  26.5831813  26.5831813  )
        81           Ti  tau(  81) = (  18.9879867  26.5831813   3.7975974  )
        82           Ti  tau(  82) = (   3.7975974   3.7975974  11.3927920  )
        83           Ti  tau(  83) = (  26.5831813  26.5831813  18.9879867  )
        84           Ti  tau(  84) = (  11.3927920   3.7975974  26.5831813  )
        85           Ti  tau(  85) = (  11.3927920  11.3927920   3.7975973  )
        86           Ti  tau(  86) = (  18.9879866   3.7975973  11.3927920  )
        87           Ti  tau(  87) = (   3.7975974   3.7975974  18.9879867  )
        88           Ti  tau(  88) = (  26.5831813  26.5831813  11.3927920  )
        89           Ti  tau(  89) = (  11.3927920  26.5831814  18.9879866  )
        90           Ti  tau(  90) = (  18.9879866  18.9879866  26.5831814  )
        91           Ti  tau(  91) = (   3.7975973   3.7975973  26.5831814  )
        92           Ti  tau(  92) = (  18.9879866  26.5831814  11.3927920  )
        93           Ti  tau(  93) = (  26.5831814  18.9879866  11.3927920  )
        94           Ti  tau(  94) = (  26.5831813   3.7975974  11.3927920  )
        95           Ti  tau(  95) = (  11.3927920   3.7975973  11.3927920  )
        96           Ti  tau(  96) = (   3.7975974  26.5831813  18.9879867  )
        97           Ti  tau(  97) = (  11.3927920  11.3927920  26.5831814  )
        98           Ti  tau(  98) = (  18.9879866  18.9879866   3.7975973  )
        99           Ti  tau(  99) = (  26.5831813   3.7975974  18.9879867  )
       100           Ti  tau( 100) = (   3.7975974  26.5831813  11.3927920  )
       101           Ti  tau( 101) = (   3.7975973  26.5831814  26.5831814  )
       102           Ti  tau( 102) = (  11.3927920  18.9879866   3.7975973  )
       103           Ti  tau( 103) = (  26.5831814   3.7975973  26.5831814  )
       104           Ti  tau( 104) = (   3.7975973  26.5831814   3.7975973  )
       105           Ti  tau( 105) = (  18.9879866  11.3927920  26.5831814  )
       106           Ti  tau( 106) = (  26.5831814   3.7975973   3.7975973  )
       107           Ti  tau( 107) = (  18.9879866  18.9879866  11.3927921  )
       108           Ti  tau( 108) = (  26.5831813  11.3927920   3.7975974  )
       109           Ti  tau( 109) = (   3.7975974  18.9879867  26.5831813  )
       110           Ti  tau( 110) = (  11.3927921  11.3927921  18.9879866  )
       111           Ti  tau( 111) = (  11.3927921  18.9879866  11.3927921  )
       112           Ti  tau( 112) = (  18.9879866  11.3927921  18.9879866  )
       113           Ti  tau( 113) = (  18.9879866  11.3927920   3.7975973  )
       114           Ti  tau( 114) = (  26.5831813  18.9879867   3.7975974  )
       115           Ti  tau( 115) = (  11.3927920  18.9879866  26.5831814  )
       116           Ti  tau( 116) = (  18.9879866  18.9879866  18.9879866  )
       117           Ti  tau( 117) = (   3.7975974  18.9879867   3.7975974  )
       118           Ti  tau( 118) = (  26.5831813  11.3927920  26.5831813  )
       119           Ti  tau( 119) = (  18.9879866  26.5831814  18.9879866  )
       120           Ti  tau( 120) = (  18.9879866  11.3927921  11.3927921  )
       121           Ti  tau( 121) = (   3.7975973  18.9879866  11.3927920  )
       122           Ti  tau( 122) = (  26.5831814  11.3927920  18.9879866  )
       123           Ti  tau( 123) = (  18.9879867  26.5831813  26.5831813  )
       124           Ti  tau( 124) = (  11.3927920   3.7975974   3.7975974  )
       125           Ti  tau( 125) = (   3.7975973  18.9879866  18.9879866  )
       126           Ti  tau( 126) = (  26.5831814  11.3927920  11.3927920  )
       127           Ti  tau( 127) = (  11.3927921  18.9879866  18.9879866  )
       128           Ti  tau( 128) = (   3.7975974  11.3927920  26.5831813  )
       129           O   tau( 129) = (  15.1903893   3.7975973  11.3927920  )
       130           O   tau( 130) = (  18.9879867   0.0000000  11.3927920  )
       131           O   tau( 131) = (  18.9879867   3.7975973   0.0000000  )
       132           O   tau( 132) = (  18.9879867  15.1903893  11.3927920  )
       133           O   tau( 133) = (  18.9879867  15.1903893  18.9879867  )
       134           O   tau( 134) = (  18.9879867   3.7975973   7.5951947  )
       135           O   tau( 135) = (  18.9879867  18.9879867  15.1903893  )
       136           O   tau( 136) = (  18.9879867   0.0000000   3.7975973  )
       137           O   tau( 137) = (  15.1903893  18.9879867  18.9879867  )
       138           O   tau( 138) = (  15.1903893   3.7975973   3.7975973  )
       139           O   tau( 139) = (  18.9879867  18.9879867  22.7855840  )
       140           O   tau( 140) = (  15.1903893  18.9879867  11.3927920  )
       141           O   tau( 141) = (  18.9879867   7.5951947   3.7975973  )
       142           O   tau( 142) = (  15.1903893  18.9879867   3.7975973  )
       143           O   tau( 143) = (  18.9879867  11.3927920   7.5951947  )
       144           O   tau( 144) = (  18.9879867  11.3927920   0.0000000  )
       145           O   tau( 145) = (  18.9879867   7.5951947  11.3927920  )
       146           O   tau( 146) = (  15.1903893  11.3927920  11.3927920  )
       147           O   tau( 147) = (  15.1903893   3.7975973  26.5831814  )
       148           O   tau( 148) = (  18.9879867  11.3927920  15.1903893  )
       149           O   tau( 149) = (  18.9879867   0.0000000  26.5831814  )
       150           O   tau( 150) = (  18.9879867   7.5951947  18.9879867  )
       151           O   tau( 151) = (  15.1903893  11.3927920  18.9879867  )
       152           O   tau( 152) = (  18.9879867   3.7975973  22.7855840  )
       153           O   tau( 153) = (  18.9879867  11.3927920  22.7855840  )
       154           O   tau( 154) = (  15.1903893   3.7975973  18.9879867  )
       155           O   tau( 155) = (  18.9879867   7.5951947  26.5831814  )
       156           O   tau( 156) = (  15.1903893  11.3927920  26.5831814  )
       157           O   tau( 157) = (  18.9879867   0.0000000  18.9879867  )
       158           O   tau( 158) = (  18.9879867  18.9879867   0.0000000  )
       159           O   tau( 159) = (  15.1903893  11.3927920   3.7975973  )
       160           O   tau( 160) = (  18.9879867   3.7975973  15.1903893  )
       161           O   tau( 161) = (  18.9879867  15.1903893   3.7975973  )
       162           O   tau( 162) = (  18.9879867  18.9879867   7.5951947  )
       163           O   tau( 163) = (  18.9879867  15.1903893  26.5831814  )
       164           O   tau( 164) = (  18.9879867  22.7855840  26.5831814  )
       165           O   tau( 165) = (  18.9879867  26.5831814   0.0000000  )
       166           O   tau( 166) = (  22.7855840  11.3927920  18.9879867  )
       167           O   tau( 167) = (  26.5831814  11.3927920  22.7855840  )
       168           O   tau( 168) = (  26.5831814   7.5951947  26.5831814  )
       169           O   tau( 169) = (  22.7855840  11.3927920  26.5831814  )
       170           O   tau( 170) = (  26.5831814  18.9879867   0.0000000  )
       171           O   tau( 171) = (  26.5831814  15.1903893   3.7975973  )
       172           O   tau( 172) = (  22.7855840  18.9879867   3.7975973  )
       173           O   tau( 173) = (  26.5831814  18.9879867   7.5951947  )
       174           O   tau( 174) = (  26.5831814  15.1903893  11.3927920  )
       175           O   tau( 175) = (  22.7855840  18.9879867  11.3927920  )
       176           O   tau( 176) = (  26.5831814  18.9879867  15.1903893  )
       177           O   tau( 177) = (  26.5831814  15.1903893  18.9879867  )
       178           O   tau( 178) = (  26.5831814   7.5951947  18.9879867  )
       179           O   tau( 179) = (  22.7855840  18.9879867  18.9879867  )
       180           O   tau( 180) = (  26.5831814  15.1903893  26.5831814  )
       181           O   tau( 181) = (  22.7855840  18.9879867  26.5831814  )
       182           O   tau( 182) = (  26.5831814  26.5831814   0.0000000  )
       183           O   tau( 183) = (  26.5831814  22.7855840   3.7975973  )
       184           O   tau( 184) = (  22.7855840  26.5831814   3.7975973  )
       185           O   tau( 185) = (  26.5831814  26.5831814   7.5951947  )
       186           O   tau( 186) = (  26.5831814  22.7855840  11.3927920  )
       187           O   tau( 187) = (  22.7855840  26.5831814  11.3927920  )
       188           O   tau( 188) = (  26.5831814  26.5831814  15.1903893  )
       189           O   tau( 189) = (  26.5831814  22.7855840  18.9879867  )
       190           O   tau( 190) = (  22.7855840  26.5831814  18.9879867  )
       191           O   tau( 191) = (  26.5831814  26.5831814  22.7855840  )
       192           O   tau( 192) = (  26.5831814  18.9879867  22.7855840  )
       193           O   tau( 193) = (  15.1903893  18.9879867  26.5831814  )
       194           O   tau( 194) = (  26.5831814  11.3927920  15.1903893  )
       195           O   tau( 195) = (  26.5831814   7.5951947  11.3927920  )
       196           O   tau( 196) = (  18.9879867  22.7855840   3.7975973  )
       197           O   tau( 197) = (  15.1903893  26.5831814   3.7975973  )
       198           O   tau( 198) = (  18.9879867  26.5831814   7.5951947  )
       199           O   tau( 199) = (  18.9879867  22.7855840  11.3927920  )
       200           O   tau( 200) = (  15.1903893  26.5831814  11.3927920  )
       201           O   tau( 201) = (  18.9879867  26.5831814  15.1903893  )
       202           O   tau( 202) = (  18.9879867  22.7855840  18.9879867  )
       203           O   tau( 203) = (  15.1903893  26.5831814  18.9879867  )
       204           O   tau( 204) = (  18.9879867  26.5831814  22.7855840  )
       205           O   tau( 205) = (  15.1903893  26.5831814  26.5831814  )
       206           O   tau( 206) = (  26.5831814   3.7975973   0.0000000  )
       207           O   tau( 207) = (  26.5831814   0.0000000   3.7975973  )
       208           O   tau( 208) = (  22.7855840  11.3927920  11.3927920  )
       209           O   tau( 209) = (  22.7855840   3.7975973   3.7975973  )
       210           O   tau( 210) = (  26.5831814   0.0000000  11.3927920  )
       211           O   tau( 211) = (  22.7855840   3.7975973  11.3927920  )
       212           O   tau( 212) = (  26.5831814   3.7975973  15.1903893  )
       213           O   tau( 213) = (  26.5831814   0.0000000  18.9879867  )
       214           O   tau( 214) = (  22.7855840   3.7975973  18.9879867  )
       215           O   tau( 215) = (  26.5831814   3.7975973  22.7855840  )
       216           O   tau( 216) = (  26.5831814   0.0000000  26.5831814  )
       217           O   tau( 217) = (  22.7855840   3.7975973  26.5831814  )
       218           O   tau( 218) = (  26.5831814  11.3927920   0.0000000  )
       219           O   tau( 219) = (  26.5831814   7.5951947   3.7975973  )
       220           O   tau( 220) = (  22.7855840  11.3927920   3.7975973  )
       221           O   tau( 221) = (  26.5831814  11.3927920   7.5951947  )
       222           O   tau( 222) = (  26.5831814   3.7975973   7.5951947  )
       223           O   tau( 223) = (  26.5831814  22.7855840  26.5831814  )
       224           O   tau( 224) = (   7.5951947  26.5831814  26.5831814  )
       225           O   tau( 225) = (  11.3927920  26.5831814  22.7855840  )
       226           O   tau( 226) = (   3.7975973  18.9879867  15.1903893  )
       227           O   tau( 227) = (   3.7975973  15.1903893  18.9879867  )
       228           O   tau( 228) = (   0.0000000  18.9879867  18.9879867  )
       229           O   tau( 229) = (   3.7975973  18.9879867  22.7855840  )
       230           O   tau( 230) = (   3.7975973  15.1903893  26.5831814  )
       231           O   tau( 231) = (   0.0000000  18.9879867  26.5831814  )
       232           O   tau( 232) = (   3.7975973  26.5831814   0.0000000  )
       233           O   tau( 233) = (   3.7975973  22.7855840   3.7975973  )
       234           O   tau( 234) = (   0.0000000  26.5831814   3.7975973  )
       235           O   tau( 235) = (   3.7975973  26.5831814   7.5951947  )
       236           O   tau( 236) = (   3.7975973  22.7855840  11.3927920  )
       237           O   tau( 237) = (   0.0000000  26.5831814  11.3927920  )
       238           O   tau( 238) = (   0.0000000  18.9879867  11.3927920  )
       239           O   tau( 239) = (   3.7975973  26.5831814  15.1903893  )
       240           O   tau( 240) = (   0.0000000  26.5831814  18.9879867  )
       241           O   tau( 241) = (   3.7975973  26.5831814  22.7855840  )
       242           O   tau( 242) = (  11.3927920  22.7855840  26.5831814  )
       243           O   tau( 243) = (   0.0000000  26.5831814  26.5831814  )
       244           O   tau( 244) = (  11.3927920   3.7975973   0.0000000  )
       245           O   tau( 245) = (  11.3927920   0.0000000   3.7975973  )
       246           O   tau( 246) = (   7.5951947   3.7975973   3.7975973  )
       247           O   tau( 247) = (  11.3927920   3.7975973   7.5951947  )
       248           O   tau( 248) = (  11.3927920   0.0000000  11.3927920  )
       249           O   tau( 249) = (   7.5951947   3.7975973  11.3927920  )
       250           O   tau( 250) = (  11.3927920   3.7975973  15.1903893  )
       251           O   tau( 251) = (  11.3927920   0.0000000  18.9879867  )
       252           O   tau( 252) = (   3.7975973  22.7855840  18.9879867  )
       253           O   tau( 253) = (   7.5951947   3.7975973  18.9879867  )
       254           O   tau( 254) = (   3.7975973  15.1903893  11.3927920  )
       255           O   tau( 255) = (   0.0000000  18.9879867   3.7975973  )
       256           O   tau( 256) = (   3.7975973   3.7975973   0.0000000  )
       257           O   tau( 257) = (   3.7975973   0.0000000   3.7975973  )
       258           O   tau( 258) = (   0.0000000   3.7975973   3.7975973  )
       259           O   tau( 259) = (   3.7975973   3.7975973   7.5951947  )
       260           O   tau( 260) = (   3.7975973   0.0000000  11.3927920  )
       261           O   tau( 261) = (   0.0000000   3.7975973  11.3927920  )
       262           O   tau( 262) = (   3.7975973   3.7975973  15.1903893  )
       263           O   tau( 263) = (   3.7975973   0.0000000  18.9879867  )
       264           O   tau( 264) = (   0.0000000   3.7975973  18.9879867  )
       265           O   tau( 265) = (   3.7975973   3.7975973  22.7855840  )
       266           O   tau( 266) = (   3.7975973   0.0000000  26.5831814  )
       267           O   tau( 267) = (   0.0000000   3.7975973  26.5831814  )
       268           O   tau( 268) = (   3.7975973  18.9879867   7.5951947  )
       269           O   tau( 269) = (   3.7975973  11.3927920   0.0000000  )
       270           O   tau( 270) = (   0.0000000  11.3927920   3.7975973  )
       271           O   tau( 271) = (   3.7975973  11.3927920   7.5951947  )
       272           O   tau( 272) = (   3.7975973   7.5951947  11.3927920  )
       273           O   tau( 273) = (   0.0000000  11.3927920  11.3927920  )
       274           O   tau( 274) = (   3.7975973  11.3927920  15.1903893  )
       275           O   tau( 275) = (   3.7975973   7.5951947  18.9879867  )
       276           O   tau( 276) = (   0.0000000  11.3927920  18.9879867  )
       277           O   tau( 277) = (   3.7975973  11.3927920  22.7855840  )
       278           O   tau( 278) = (   3.7975973   7.5951947  26.5831814  )
       279           O   tau( 279) = (   0.0000000  11.3927920  26.5831814  )
       280           O   tau( 280) = (   3.7975973  18.9879867   0.0000000  )
       281           O   tau( 281) = (   3.7975973  15.1903893   3.7975973  )
       282           O   tau( 282) = (   3.7975973   7.5951947   3.7975973  )
       283           O   tau( 283) = (  11.3927920   3.7975973  22.7855840  )
       284           O   tau( 284) = (   3.7975973  22.7855840  26.5831814  )
       285           O   tau( 285) = (   7.5951947   3.7975973  26.5831814  )
       286           O   tau( 286) = (   7.5951947  11.3927920  26.5831814  )
       287           O   tau( 287) = (  11.3927920  18.9879867   0.0000000  )
       288           O   tau( 288) = (  11.3927920  15.1903893   3.7975973  )
       289           O   tau( 289) = (   7.5951947  18.9879867   3.7975973  )
       290           O   tau( 290) = (  11.3927920  18.9879867   7.5951947  )
       291           O   tau( 291) = (  11.3927920   0.0000000  26.5831814  )
       292           O   tau( 292) = (   7.5951947  18.9879867  11.3927920  )
       293           O   tau( 293) = (  11.3927920  18.9879867  15.1903893  )
       294           O   tau( 294) = (  11.3927920  15.1903893  18.9879867  )
       295           O   tau( 295) = (   7.5951947  18.9879867  18.9879867  )
       296           O   tau( 296) = (  11.3927920   7.5951947  26.5831814  )
       297           O   tau( 297) = (  11.3927920  18.9879867  22.7855840  )
       298           O   tau( 298) = (   7.5951947  18.9879867  26.5831814  )
       299           O   tau( 299) = (  11.3927920  26.5831814   0.0000000  )
       300           O   tau( 300) = (  11.3927920  22.7855840   3.7975973  )
       301           O   tau( 301) = (   7.5951947  26.5831814   3.7975973  )
       302           O   tau( 302) = (  11.3927920  26.5831814   7.5951947  )
       303           O   tau( 303) = (  11.3927920  22.7855840  11.3927920  )
       304           O   tau( 304) = (   7.5951947  26.5831814  11.3927920  )
       305           O   tau( 305) = (  11.3927920  26.5831814  15.1903893  )
       306           O   tau( 306) = (  11.3927920  22.7855840  18.9879867  )
       307           O   tau( 307) = (   7.5951947  26.5831814  18.9879867  )
       308           O   tau( 308) = (  11.3927920  15.1903893  26.5831814  )
       309           O   tau( 309) = (  11.3927920  11.3927920  22.7855840  )
       310           O   tau( 310) = (  11.3927920  15.1903893  11.3927920  )
       311           O   tau( 311) = (  22.7855840  26.5831814  26.5831814  )
       312           O   tau( 312) = (   7.5951947  11.3927920  18.9879867  )
       313           O   tau( 313) = (  11.3927920  11.3927920   0.0000000  )
       314           O   tau( 314) = (  11.3927920   7.5951947  18.9879867  )
       315           O   tau( 315) = (  11.3927920  11.3927920   7.5951947  )
       316           O   tau( 316) = (  11.3927920  11.3927920  15.1903893  )
       317           O   tau( 317) = (   7.5951947  11.3927920  11.3927920  )
       318           O   tau( 318) = (  11.3927920   7.5951947  11.3927920  )
       319           O   tau( 319) = (   7.5951947  11.3927920   3.7975973  )
       320           O   tau( 320) = (  11.3927920   7.5951947   3.7975973  )

   Crystallographic axes

     site n.     atom                  positions (cryst. coord.)
         1           Ba  tau(   1) = (  0.0000000  0.0000000  0.0000000  )
         2           Ba  tau(   2) = (  0.5000000  0.5000000  0.0000000  )
         3           Ba  tau(   3) = (  0.0000000  0.7500000  0.2500000  )
         4           Ba  tau(   4) = (  0.7500000  0.0000000  0.7500000  )
         5           Ba  tau(   5) = (  0.2500000  0.5000000  0.0000000  )
         6           Ba  tau(   6) = (  0.0000000  0.7500000  0.0000000  )
         7           Ba  tau(   7) = (  0.5000000  0.2500000  0.7500000  )
         8           Ba  tau(   8) = (  0.7500000  0.2500000  0.0000000  )
         9           Ba  tau(   9) = (  0.7500000  0.0000000  0.5000000  )
        10           Ba  tau(  10) = (  0.0000000  0.5000000  0.7500000  )
        11           Ba  tau(  11) = (  0.7500000  0.2500000  0.2500000  )
        12           Ba  tau(  12) = (  0.0000000  0.5000000  0.5000000  )
        13           Ba  tau(  13) = (  0.5000000  0.7500000  0.0000000  )
        14           Ba  tau(  14) = (  0.7500000  0.2500000  0.5000000  )
        15           Ba  tau(  15) = (  0.0000000  0.5000000  0.2500000  )
        16           Ba  tau(  16) = (  0.2500000  0.5000000  0.5000000  )
        17           Ba  tau(  17) = (  0.7500000  0.2500000  0.7500000  )
        18           Ba  tau(  18) = (  0.2500000  0.5000000  0.2500000  )
        19           Ba  tau(  19) = (  0.5000000  0.2500000  0.2500000  )
        20           Ba  tau(  20) = (  0.2500000  0.2500000  0.7500000  )
        21           Ba  tau(  21) = (  0.7500000  0.0000000  0.2500000  )
        22           Ba  tau(  22) = (  0.2500000  0.2500000  0.0000000  )
        23           Ba  tau(  23) = (  0.2500000  0.0000000  0.7500000  )
        24           Ba  tau(  24) = (  0.5000000  0.5000000  0.7500000  )
        25           Ba  tau(  25) = (  0.5000000  0.7500000  0.2500000  )
        26           Ba  tau(  26) = (  0.2500000  0.0000000  0.5000000  )
        27           Ba  tau(  27) = (  0.2500000  0.2500000  0.2500000  )
        28           Ba  tau(  28) = (  0.5000000  0.7500000  0.5000000  )
        29           Ba  tau(  29) = (  0.0000000  0.7500000  0.5000000  )
        30           Ba  tau(  30) = (  0.2500000  0.0000000  0.2500000  )
        31           Ba  tau(  31) = (  0.5000000  0.7500000  0.7500000  )
        32           Ba  tau(  32) = (  0.2500000  0.0000000  0.0000000  )
        33           Ba  tau(  33) = (  0.5000000  0.0000000  0.0000000  )
        34           Ba  tau(  34) = (  0.2500000  0.2500000  0.5000000  )
        35           Ba  tau(  35) = (  0.7500000  0.0000000  0.0000000  )
        36           Ba  tau(  36) = (  0.0000000  0.7500000  0.7500000  )
        37           Ba  tau(  37) = (  0.5000000  0.5000000  0.2500000  )
        38           Ba  tau(  38) = (  0.5000000  0.5000000  0.5000000  )
        39           Ba  tau(  39) = (  0.0000000  0.5000000  0.0000000  )
        40           Ba  tau(  40) = (  0.5000000  0.2500000  0.5000000  )
        41           Ba  tau(  41) = (  0.2500000  0.7500000  0.2500000  )
        42           Ba  tau(  42) = (  0.7500000  0.7500000  0.0000000  )
        43           Ba  tau(  43) = (  0.7500000  0.7500000  0.2500000  )
        44           Ba  tau(  44) = (  0.2500000  0.7500000  0.5000000  )
        45           Ba  tau(  45) = (  0.0000000  0.2500000  0.0000000  )
        46           Ba  tau(  46) = (  0.0000000  0.0000000  0.5000000  )
        47           Ba  tau(  47) = (  0.7500000  0.5000000  0.7500000  )
        48           Ba  tau(  48) = (  0.5000000  0.0000000  0.2500000  )
        49           Ba  tau(  49) = (  0.5000000  0.0000000  0.7500000  )
        50           Ba  tau(  50) = (  0.0000000  0.2500000  0.2500000  )
        51           Ba  tau(  51) = (  0.7500000  0.7500000  0.5000000  )
        52           Ba  tau(  52) = (  0.5000000  0.0000000  0.5000000  )
        53           Ba  tau(  53) = (  0.2500000  0.7500000  0.0000000  )
        54           Ba  tau(  54) = (  0.7500000  0.5000000  0.5000000  )
        55           Ba  tau(  55) = (  0.0000000  0.0000000  0.7500000  )
        56           Ba  tau(  56) = (  0.0000000  0.2500000  0.5000000  )
        57           Ba  tau(  57) = (  0.7500000  0.5000000  0.0000000  )
        58           Ba  tau(  58) = (  0.2500000  0.5000000  0.7500000  )
        59           Ba  tau(  59) = (  0.7500000  0.5000000  0.2500000  )
        60           Ba  tau(  60) = (  0.2500000  0.7500000  0.7500000  )
        61           Ba  tau(  61) = (  0.5000000  0.2500000  0.0000000  )
        62           Ba  tau(  62) = (  0.0000000  0.0000000  0.2500000  )
        63           Ba  tau(  63) = (  0.7500000  0.7500000  0.7500000  )
        64           Ba  tau(  64) = (  0.0000000  0.2500000  0.7500000  )
        65           Ti  tau(  65) = (  0.3750000  0.8750000  0.3750000  )
        66           Ti  tau(  66) = (  0.1250000  0.3750000  0.1250000  )
        67           Ti  tau(  67) = (  0.8750000  0.6250000  0.8750000  )
        68           Ti  tau(  68) = (  0.1250000  0.3750000  0.3750000  )
        69           Ti  tau(  69) = (  0.8750000  0.6250000  0.6250000  )
        70           Ti  tau(  70) = (  0.6250000  0.1250000  0.8750000  )
        71           Ti  tau(  71) = (  0.3750000  0.8750000  0.1250000  )
        72           Ti  tau(  72) = (  0.3750000  0.3750000  0.3750000  )
        73           Ti  tau(  73) = (  0.3750000  0.1250000  0.6250000  )
        74           Ti  tau(  74) = (  0.6250000  0.1250000  0.6250000  )
        75           Ti  tau(  75) = (  0.8750000  0.8750000  0.1250000  )
        76           Ti  tau(  76) = (  0.1250000  0.3750000  0.6250000  )
        77           Ti  tau(  77) = (  0.1250000  0.1250000  0.1250000  )
        78           Ti  tau(  78) = (  0.8750000  0.8750000  0.8750000  )
        79           Ti  tau(  79) = (  0.6250000  0.1250000  0.1250000  )
        80           Ti  tau(  80) = (  0.3750000  0.8750000  0.8750000  )
        81           Ti  tau(  81) = (  0.6250000  0.8750000  0.1250000  )
        82           Ti  tau(  82) = (  0.1250000  0.1250000  0.3750000  )
        83           Ti  tau(  83) = (  0.8750000  0.8750000  0.6250000  )
        84           Ti  tau(  84) = (  0.3750000  0.1250000  0.8750000  )
        85           Ti  tau(  85) = (  0.3750000  0.3750000  0.1250000  )
        86           Ti  tau(  86) = (  0.6250000  0.1250000  0.3750000  )
        87           Ti  tau(  87) = (  0.1250000  0.1250000  0.6250000  )
        88           Ti  tau(  88) = (  0.8750000  0.8750000  0.3750000  )
        89           Ti  tau(  89) = (  0.3750000  0.8750000  0.6250000  )
        90           Ti  tau(  90) = (  0.6250000  0.6250000  0.8750000  )
        91           Ti  tau(  91) = (  0.1250000  0.1250000  0.8750000  )
        92           Ti  tau(  92) = (  0.6250000  0.8750000  0.3750000  )
        93           Ti  tau(  93) = (  0.8750000  0.6250000  0.3750000  )
        94           Ti  tau(  94) = (  0.8750000  0.1250000  0.3750000  )
        95           Ti  tau(  95) = (  0.3750000  0.1250000  0.3750000  )
        96           Ti  tau(  96) = (  0.1250000  0.8750000  0.6250000  )
        97           Ti  tau(  97) = (  0.3750000  0.3750000  0.8750000  )
        98           Ti  tau(  98) = (  0.6250000  0.6250000  0.1250000  )
        99           Ti  tau(  99) = (  0.8750000  0.1250000  0.6250000  )
       100           Ti  tau( 100) = (  0.1250000  0.8750000  0.3750000  )
       101           Ti  tau( 101) = (  0.1250000  0.8750000  0.8750000  )
       102           Ti  tau( 102) = (  0.3750000  0.6250000  0.1250000  )
       103           Ti  tau( 103) = (  0.8750000  0.1250000  0.8750000  )
       104           Ti  tau( 104) = (  0.1250000  0.8750000  0.1250000  )
       105           Ti  tau( 105) = (  0.6250000  0.3750000  0.8750000  )
       106           Ti  tau( 106) = (  0.8750000  0.1250000  0.1250000  )
       107           Ti  tau( 107) = (  0.6250000  0.6250000  0.3750000  )
       108           Ti  tau( 108) = (  0.8750000  0.3750000  0.1250000  )
       109           Ti  tau( 109) = (  0.1250000  0.6250000  0.8750000  )
       110           Ti  tau( 110) = (  0.3750000  0.3750000  0.6250000  )
       111           Ti  tau( 111) = (  0.3750000  0.6250000  0.3750000  )
       112           Ti  tau( 112) = (  0.6250000  0.3750000  0.6250000  )
       113           Ti  tau( 113) = (  0.6250000  0.3750000  0.1250000  )
       114           Ti  tau( 114) = (  0.8750000  0.6250000  0.1250000  )
       115           Ti  tau( 115) = (  0.3750000  0.6250000  0.8750000  )
       116           Ti  tau( 116) = (  0.6250000  0.6250000  0.6250000  )
       117           Ti  tau( 117) = (  0.1250000  0.6250000  0.1250000  )
       118           Ti  tau( 118) = (  0.8750000  0.3750000  0.8750000  )
       119           Ti  tau( 119) = (  0.6250000  0.8750000  0.6250000  )
       120           Ti  tau( 120) = (  0.6250000  0.3750000  0.3750000  )
       121           Ti  tau( 121) = (  0.1250000  0.6250000  0.3750000  )
       122           Ti  tau( 122) = (  0.8750000  0.3750000  0.6250000  )
       123           Ti  tau( 123) = (  0.6250000  0.8750000  0.8750000  )
       124           Ti  tau( 124) = (  0.3750000  0.1250000  0.1250000  )
       125           Ti  tau( 125) = (  0.1250000  0.6250000  0.6250000  )
       126           Ti  tau( 126) = (  0.8750000  0.3750000  0.3750000  )
       127           Ti  tau( 127) = (  0.3750000  0.6250000  0.6250000  )
       128           Ti  tau( 128) = (  0.1250000  0.3750000  0.8750000  )
       129           O   tau( 129) = (  0.5000000  0.1250000  0.3750000  )
       130           O   tau( 130) = (  0.6250000  0.0000000  0.3750000  )
       131           O   tau( 131) = (  0.6250000  0.1250000  0.0000000  )
       132           O   tau( 132) = (  0.6250000  0.5000000  0.3750000  )
       133           O   tau( 133) = (  0.6250000  0.5000000  0.6250000  )
       134           O   tau( 134) = (  0.6250000  0.1250000  0.2500000  )
       135           O   tau( 135) = (  0.6250000  0.6250000  0.5000000  )
       136           O   tau( 136) = (  0.6250000  0.0000000  0.1250000  )
       137           O   tau( 137) = (  0.5000000  0.6250000  0.6250000  )
       138           O   tau( 138) = (  0.5000000  0.1250000  0.1250000  )
       139           O   tau( 139) = (  0.6250000  0.6250000  0.7500000  )
       140           O   tau( 140) = (  0.5000000  0.6250000  0.3750000  )
       141           O   tau( 141) = (  0.6250000  0.2500000  0.1250000  )
       142           O   tau( 142) = (  0.5000000  0.6250000  0.1250000  )
       143           O   tau( 143) = (  0.6250000  0.3750000  0.2500000  )
       144           O   tau( 144) = (  0.6250000  0.3750000  0.0000000  )
       145           O   tau( 145) = (  0.6250000  0.2500000  0.3750000  )
       146           O   tau( 146) = (  0.5000000  0.3750000  0.3750000  )
       147           O   tau( 147) = (  0.5000000  0.1250000  0.8750000  )
       148           O   tau( 148) = (  0.6250000  0.3750000  0.5000000  )
       149           O   tau( 149) = (  0.6250000  0.0000000  0.8750000  )
       150           O   tau( 150) = (  0.6250000  0.2500000  0.6250000  )
       151           O   tau( 151) = (  0.5000000  0.3750000  0.6250000  )
       152           O   tau( 152) = (  0.6250000  0.1250000  0.7500000  )
       153           O   tau( 153) = (  0.6250000  0.3750000  0.7500000  )
       154           O   tau( 154) = (  0.5000000  0.1250000  0.6250000  )
       155           O   tau( 155) = (  0.6250000  0.2500000  0.8750000  )
       156           O   tau( 156) = (  0.5000000  0.3750000  0.8750000  )
       157           O   tau( 157) = (  0.6250000  0.0000000  0.6250000  )
       158           O   tau( 158) = (  0.6250000  0.6250000  0.0000000  )
       159           O   tau( 159) = (  0.5000000  0.3750000  0.1250000  )
       160           O   tau( 160) = (  0.6250000  0.1250000  0.5000000  )
       161           O   tau( 161) = (  0.6250000  0.5000000  0.1250000  )
       162           O   tau( 162) = (  0.6250000  0.6250000  0.2500000  )
       163           O   tau( 163) = (  0.6250000  0.5000000  0.8750000  )
       164           O   tau( 164) = (  0.6250000  0.7500000  0.8750000  )
       165           O   tau( 165) = (  0.6250000  0.8750000  0.0000000  )
       166           O   tau( 166) = (  0.7500000  0.3750000  0.6250000  )
       167           O   tau( 167) = (  0.8750000  0.3750000  0.7500000  )
       168           O   tau( 168) = (  0.8750000  0.2500000  0.8750000  )
       169           O   tau( 169) = (  0.7500000  0.3750000  0.8750000  )
       170           O   tau( 170) = (  0.8750000  0.6250000  0.0000000  )
       171           O   tau( 171) = (  0.8750000  0.5000000  0.1250000  )
       172           O   tau( 172) = (  0.7500000  0.6250000  0.1250000  )
       173           O   tau( 173) = (  0.8750000  0.6250000  0.2500000  )
       174           O   tau( 174) = (  0.8750000  0.5000000  0.3750000  )
       175           O   tau( 175) = (  0.7500000  0.6250000  0.3750000  )
       176           O   tau( 176) = (  0.8750000  0.6250000  0.5000000  )
       177           O   tau( 177) = (  0.8750000  0.5000000  0.6250000  )
       178           O   tau( 178) = (  0.8750000  0.2500000  0.6250000  )
       179           O   tau( 179) = (  0.7500000  0.6250000  0.6250000  )
       180           O   tau( 180) = (  0.8750000  0.5000000  0.8750000  )
       181           O   tau( 181) = (  0.7500000  0.6250000  0.8750000  )
       182           O   tau( 182) = (  0.8750000  0.8750000  0.0000000  )
       183           O   tau( 183) = (  0.8750000  0.7500000  0.1250000  )
       184           O   tau( 184) = (  0.7500000  0.8750000  0.1250000  )
       185           O   tau( 185) = (  0.8750000  0.8750000  0.2500000  )
       186           O   tau( 186) = (  0.8750000  0.7500000  0.3750000  )
       187           O   tau( 187) = (  0.7500000  0.8750000  0.3750000  )
       188           O   tau( 188) = (  0.8750000  0.8750000  0.5000000  )
       189           O   tau( 189) = (  0.8750000  0.7500000  0.6250000  )
       190           O   tau( 190) = (  0.7500000  0.8750000  0.6250000  )
       191           O   tau( 191) = (  0.8750000  0.8750000  0.7500000  )
       192           O   tau( 192) = (  0.8750000  0.6250000  0.7500000  )
       193           O   tau( 193) = (  0.5000000  0.6250000  0.8750000  )
       194           O   tau( 194) = (  0.8750000  0.3750000  0.5000000  )
       195           O   tau( 195) = (  0.8750000  0.2500000  0.3750000  )
       196           O   tau( 196) = (  0.6250000  0.7500000  0.1250000  )
       197           O   tau( 197) = (  0.5000000  0.8750000  0.1250000  )
       198           O   tau( 198) = (  0.6250000  0.8750000  0.2500000  )
       199           O   tau( 199) = (  0.6250000  0.7500000  0.3750000  )
       200           O   tau( 200) = (  0.5000000  0.8750000  0.3750000  )
       201           O   tau( 201) = (  0.6250000  0.8750000  0.5000000  )
       202           O   tau( 202) = (  0.6250000  0.7500000  0.6250000  )
       203           O   tau( 203) = (  0.5000000  0.8750000  0.6250000  )
       204           O   tau( 204) = (  0.6250000  0.8750000  0.7500000  )
       205           O   tau( 205) = (  0.5000000  0.8750000  0.8750000  )
       206           O   tau( 206) = (  0.8750000  0.1250000  0.0000000  )
       207           O   tau( 207) = (  0.8750000  0.0000000  0.1250000  )
       208           O   tau( 208) = (  0.7500000  0.3750000  0.3750000  )
       209           O   tau( 209) = (  0.7500000  0.1250000  0.1250000  )
       210           O   tau( 210) = (  0.8750000  0.0000000  0.3750000  )
       211           O   tau( 211) = (  0.7500000  0.1250000  0.3750000  )
       212           O   tau( 212) = (  0.8750000  0.1250000  0.5000000  )
       213           O   tau( 213) = (  0.8750000  0.0000000  0.6250000  )
       214           O   tau( 214) = (  0.7500000  0.1250000  0.6250000  )
       215           O   tau( 215) = (  0.8750000  0.1250000  0.7500000  )
       216           O   tau( 216) = (  0.8750000  0.0000000  0.8750000  )
       217           O   tau( 217) = (  0.7500000  0.1250000  0.8750000  )
       218           O   tau( 218) = (  0.8750000  0.3750000  0.0000000  )
       219           O   tau( 219) = (  0.8750000  0.2500000  0.1250000  )
       220           O   tau( 220) = (  0.7500000  0.3750000  0.1250000  )
       221           O   tau( 221) = (  0.8750000  0.3750000  0.2500000  )
       222           O   tau( 222) = (  0.8750000  0.1250000  0.2500000  )
       223           O   tau( 223) = (  0.8750000  0.7500000  0.8750000  )
       224           O   tau( 224) = (  0.2500000  0.8750000  0.8750000  )
       225           O   tau( 225) = (  0.3750000  0.8750000  0.7500000  )
       226           O   tau( 226) = (  0.1250000  0.6250000  0.5000000  )
       227           O   tau( 227) = (  0.1250000  0.5000000  0.6250000  )
       228           O   tau( 228) = (  0.0000000  0.6250000  0.6250000  )
       229           O   tau( 229) = (  0.1250000  0.6250000  0.7500000  )
       230           O   tau( 230) = (  0.1250000  0.5000000  0.8750000  )
       231           O   tau( 231) = (  0.0000000  0.6250000  0.8750000  )
       232           O   tau( 232) = (  0.1250000  0.8750000  0.0000000  )
       233           O   tau( 233) = (  0.1250000  0.7500000  0.1250000  )
       234           O   tau( 234) = (  0.0000000  0.8750000  0.1250000  )
       235           O   tau( 235) = (  0.1250000  0.8750000  0.2500000  )
       236           O   tau( 236) = (  0.1250000  0.7500000  0.3750000  )
       237           O   tau( 237) = (  0.0000000  0.8750000  0.3750000  )
       238           O   tau( 238) = (  0.0000000  0.6250000  0.3750000  )
       239           O   tau( 239) = (  0.1250000  0.8750000  0.5000000  )
       240           O   tau( 240) = (  0.0000000  0.8750000  0.6250000  )
       241           O   tau( 241) = (  0.1250000  0.8750000  0.7500000  )
       242           O   tau( 242) = (  0.3750000  0.7500000  0.8750000  )
       243           O   tau( 243) = (  0.0000000  0.8750000  0.8750000  )
       244           O   tau( 244) = (  0.3750000  0.1250000  0.0000000  )
       245           O   tau( 245) = (  0.3750000  0.0000000  0.1250000  )
       246           O   tau( 246) = (  0.2500000  0.1250000  0.1250000  )
       247           O   tau( 247) = (  0.3750000  0.1250000  0.2500000  )
       248           O   tau( 248) = (  0.3750000  0.0000000  0.3750000  )
       249           O   tau( 249) = (  0.2500000  0.1250000  0.3750000  )
       250           O   tau( 250) = (  0.3750000  0.1250000  0.5000000  )
       251           O   tau( 251) = (  0.3750000  0.0000000  0.6250000  )
       252           O   tau( 252) = (  0.1250000  0.7500000  0.6250000  )
       253           O   tau( 253) = (  0.2500000  0.1250000  0.6250000  )
       254           O   tau( 254) = (  0.1250000  0.5000000  0.3750000  )
       255           O   tau( 255) = (  0.0000000  0.6250000  0.1250000  )
       256           O   tau( 256) = (  0.1250000  0.1250000  0.0000000  )
       257           O   tau( 257) = (  0.1250000  0.0000000  0.1250000  )
       258           O   tau( 258) = (  0.0000000  0.1250000  0.1250000  )
       259           O   tau( 259) = (  0.1250000  0.1250000  0.2500000  )
       260           O   tau( 260) = (  0.1250000  0.0000000  0.3750000  )
       261           O   tau( 261) = (  0.0000000  0.1250000  0.3750000  )
       262           O   tau( 262) = (  0.1250000  0.1250000  0.5000000  )
       263           O   tau( 263) = (  0.1250000  0.0000000  0.6250000  )
       264           O   tau( 264) = (  0.0000000  0.1250000  0.6250000  )
       265           O   tau( 265) = (  0.1250000  0.1250000  0.7500000  )
       266           O   tau( 266) = (  0.1250000  0.0000000  0.8750000  )
       267           O   tau( 267) = (  0.0000000  0.1250000  0.8750000  )
       268           O   tau( 268) = (  0.1250000  0.6250000  0.2500000  )
       269           O   tau( 269) = (  0.1250000  0.3750000  0.0000000  )
       270           O   tau( 270) = (  0.0000000  0.3750000  0.1250000  )
       271           O   tau( 271) = (  0.1250000  0.3750000  0.2500000  )
       272           O   tau( 272) = (  0.1250000  0.2500000  0.3750000  )
       273           O   tau( 273) = (  0.0000000  0.3750000  0.3750000  )
       274           O   tau( 274) = (  0.1250000  0.3750000  0.5000000  )
       275           O   tau( 275) = (  0.1250000  0.2500000  0.6250000  )
       276           O   tau( 276) = (  0.0000000  0.3750000  0.6250000  )
       277           O   tau( 277) = (  0.1250000  0.3750000  0.7500000  )
       278           O   tau( 278) = (  0.1250000  0.2500000  0.8750000  )
       279           O   tau( 279) = (  0.0000000  0.3750000  0.8750000  )
       280           O   tau( 280) = (  0.1250000  0.6250000  0.0000000  )
       281           O   tau( 281) = (  0.1250000  0.5000000  0.1250000  )
       282           O   tau( 282) = (  0.1250000  0.2500000  0.1250000  )
       283           O   tau( 283) = (  0.3750000  0.1250000  0.7500000  )
       284           O   tau( 284) = (  0.1250000  0.7500000  0.8750000  )
       285           O   tau( 285) = (  0.2500000  0.1250000  0.8750000  )
       286           O   tau( 286) = (  0.2500000  0.3750000  0.8750000  )
       287           O   tau( 287) = (  0.3750000  0.6250000  0.0000000  )
       288           O   tau( 288) = (  0.3750000  0.5000000  0.1250000  )
       289           O   tau( 289) = (  0.2500000  0.6250000  0.1250000  )
       290           O   tau( 290) = (  0.3750000  0.6250000  0.2500000  )
       291           O   tau( 291) = (  0.3750000  0.0000000  0.8750000  )
       292           O   tau( 292) = (  0.2500000  0.6250000  0.3750000  )
       293           O   tau( 293) = (  0.3750000  0.6250000  0.5000000  )
       294           O   tau( 294) = (  0.3750000  0.5000000  0.6250000  )
       295           O   tau( 295) = (  0.2500000  0.6250000  0.6250000  )
       296           O   tau( 296) = (  0.3750000  0.2500000  0.8750000  )
       297           O   tau( 297) = (  0.3750000  0.6250000  0.7500000  )
       298           O   tau( 298) = (  0.2500000  0.6250000  0.8750000  )
       299           O   tau( 299) = (  0.3750000  0.8750000  0.0000000  )
       300           O   tau( 300) = (  0.3750000  0.7500000  0.1250000  )
       301           O   tau( 301) = (  0.2500000  0.8750000  0.1250000  )
       302           O   tau( 302) = (  0.3750000  0.8750000  0.2500000  )
       303           O   tau( 303) = (  0.3750000  0.7500000  0.3750000  )
       304           O   tau( 304) = (  0.2500000  0.8750000  0.3750000  )
       305           O   tau( 305) = (  0.3750000  0.8750000  0.5000000  )
       306           O   tau( 306) = (  0.3750000  0.7500000  0.6250000  )
       307           O   tau( 307) = (  0.2500000  0.8750000  0.6250000  )
       308           O   tau( 308) = (  0.3750000  0.5000000  0.8750000  )
       309           O   tau( 309) = (  0.3750000  0.3750000  0.7500000  )
       310           O   tau( 310) = (  0.3750000  0.5000000  0.3750000  )
       311           O   tau( 311) = (  0.7500000  0.8750000  0.8750000  )
       312           O   tau( 312) = (  0.2500000  0.3750000  0.6250000  )
       313           O   tau( 313) = (  0.3750000  0.3750000  0.0000000  )
       314           O   tau( 314) = (  0.3750000  0.2500000  0.6250000  )
       315           O   tau( 315) = (  0.3750000  0.3750000  0.2500000  )
       316           O   tau( 316) = (  0.3750000  0.3750000  0.5000000  )
       317           O   tau( 317) = (  0.2500000  0.3750000  0.3750000  )
       318           O   tau( 318) = (  0.3750000  0.2500000  0.3750000  )
       319           O   tau( 319) = (  0.2500000  0.3750000  0.1250000  )
       320           O   tau( 320) = (  0.3750000  0.2500000  0.1250000  )

     number of k points=     1
                       cart. coord. in units 2pi/alat
        k(    1) = (   0.0000000   0.0000000   0.0000000), wk =   2.0000000

                       cryst. coord.
        k(    1) = (   0.0000000   0.0000000   0.0000000), wk =   2.0000000

     Dense  grid:  2711337 G-vectors     FFT dimensions: ( 180, 180, 180)

     Smooth grid:   958091 G-vectors     FFT dimensions: ( 125, 125, 125)

     Dynamical RAM for                 wfc:      36.54 MB

     Dynamical RAM for     wfc (w. buffer):      36.54 MB

     Dynamical RAM for           str. fact:       1.94 MB

     Dynamical RAM for           local pot:       0.00 MB

     Dynamical RAM for          nlocal pot:     162.62 MB

     Dynamical RAM for                qrad:      49.91 MB

     Dynamical RAM for          rho,v,vnew:       4.16 MB

     Dynamical RAM for               rhoin:       1.39 MB

     Dynamical RAM for            rho*nmix:      10.34 MB

     Dynamical RAM for           G-vectors:       2.54 MB

     Dynamical RAM for          h,s,v(r/c):      48.00 MB

     Dynamical RAM for          <psi|beta>:     111.25 MB

     Dynamical RAM for                 psi:     146.17 MB

     Dynamical RAM for                hpsi:     146.17 MB

     Dynamical RAM for                spsi:     146.17 MB

     Dynamical RAM for      wfcinit/wfcrot:     125.78 MB

     Dynamical RAM for           addusdens:     252.11 MB

     Estimated static dynamical RAM per process >     275.73 MB

     Estimated max dynamical RAM per process >     873.50 MB

     Estimated total dynamical RAM >      54.59 GB

=== Warning at line 43 of file Density/initial_density.hpp ===
wrong initial charge density
  integral of the density : 2471.08
  target number of electrons : 2560


     negative rho (up, down):  2.409E-03 0.000E+00

     Self-consistent Calculation

     iteration #  1     ecut=    40.00 Ry     beta=0.70
     ethr =  1.00E-03

     negative rho (up, down):  5.935E-02 0.000E+00

     total energy              =  -17642.51653950 Ry
     Harris-Foulkes estimate   =       0.00000000 Ry
     estimated scf accuracy    <      73.91932420 Ry

     iteration #  2     ecut=    40.00 Ry     beta=0.70
     ethr =  1.00E-03

     total energy              =  -17181.66259896 Ry
     Harris-Foulkes estimate   =       0.00000000 Ry
     estimated scf accuracy    <     262.45214891 Ry

     iteration #  3     ecut=    40.00 Ry     beta=0.70
     ethr =  1.00E-03

     negative rho (up, down):  1.138E-02 0.000E+00

     total energy              =  -17056.98765481 Ry
     Harris-Foulkes estimate   =       0.00000000 Ry
     estimated scf accuracy    <      32.54497717 Ry

     iteration #  4     ecut=    40.00 Ry     beta=0.70
     ethr =  1.00E-03

     negative rho (up, down):  5.473E-02 0.000E+00

     total energy              =  -17146.98807028 Ry
     Harris-Foulkes estimate   =       0.00000000 Ry
     estimated scf accuracy    <       4.29567804 Ry

     iteration #  5     ecut=    40.00 Ry     beta=0.70
     ethr =  1.68E-04

     negative rho (up, down):  5.455E-02 0.000E+00

     total energy              =  -17175.14893767 Ry
     Harris-Foulkes estimate   =       0.00000000 Ry
     estimated scf accuracy    <       0.68945014 Ry

     iteration #  6     ecut=    40.00 Ry     beta=0.70
     ethr =  2.69E-05

     negative rho (up, down):  5.400E-02 0.000E+00

     total energy              =  -17173.72255658 Ry
     Harris-Foulkes estimate   =       0.00000000 Ry
     estimated scf accuracy    <       0.04084703 Ry

     iteration #  7     ecut=    40.00 Ry     beta=0.70
     ethr =  1.60E-06

     negative rho (up, down):  5.357E-02 0.000E+00

     total energy              =  -17174.11416601 Ry
     Harris-Foulkes estimate   =       0.00000000 Ry
     estimated scf accuracy    <       0.00963889 Ry

     iteration #  8     ecut=    40.00 Ry     beta=0.70
     ethr =  3.77E-07

     negative rho (up, down):  5.385E-02 0.000E+00

     total energy              =  -17172.09692394 Ry
     Harris-Foulkes estimate   =       0.00000000 Ry
     estimated scf accuracy    <       0.00199615 Ry

     iteration #  9     ecut=    40.00 Ry     beta=0.70
     ethr =  7.80E-08

     negative rho (up, down):  5.440E-02 0.000E+00

     total energy              =  -17171.82516313 Ry
     Harris-Foulkes estimate   =       0.00000000 Ry
     estimated scf accuracy    <       0.00084950 Ry

     iteration # 10     ecut=    40.00 Ry     beta=0.70
     ethr =  3.32E-08

     negative rho (up, down):  5.448E-02 0.000E+00

     total energy              =  -17172.18835412 Ry
     Harris-Foulkes estimate   =       0.00000000 Ry
     estimated scf accuracy    <       0.00004908 Ry

     iteration # 11     ecut=    40.00 Ry     beta=0.70
     ethr =  1.92E-09

     negative rho (up, down):  5.439E-02 0.000E+00

     total energy              =  -17172.35930790 Ry
     Harris-Foulkes estimate   =       0.00000000 Ry
     estimated scf accuracy    <       0.00005290 Ry

     iteration # 12     ecut=    40.00 Ry     beta=0.70
     ethr =  1.92E-09

     negative rho (up, down):  5.440E-02 0.000E+00

     total energy              =  -17172.24559623 Ry
     Harris-Foulkes estimate   =       0.00000000 Ry
     estimated scf accuracy    <       0.00000295 Ry

     iteration # 13     ecut=    40.00 Ry     beta=0.70
     ethr =  1.15E-10

     negative rho (up, down):  5.440E-02 0.000E+00

     total energy              =  -17172.25381390 Ry
     Harris-Foulkes estimate   =       0.00000000 Ry
     estimated scf accuracy    <       0.00000112 Ry

     iteration # 14     ecut=    40.00 Ry     beta=0.70
     ethr =  4.37E-11

     negative rho (up, down):  5.440E-02 0.000E+00

     total energy              =  -17172.24552471 Ry
     Harris-Foulkes estimate   =       0.00000000 Ry
     estimated scf accuracy    <       0.00000036 Ry

     iteration # 15     ecut=    40.00 Ry     beta=0.70
     ethr =  1.40E-11

     negative rho (up, down):  5.440E-02 0.000E+00

     total energy              =  -17172.24672543 Ry
     Harris-Foulkes estimate   =       0.00000000 Ry
     estimated scf accuracy    <       0.00000008 Ry

     iteration # 16     ecut=    40.00 Ry     beta=0.70
     ethr =  3.31E-12

     negative rho (up, down):  5.440E-02 0.000E+00

     total energy              =  -17172.24585768 Ry
     Harris-Foulkes estimate   =       0.00000000 Ry
     estimated scf accuracy    <          9.8E-09 Ry

     iteration # 17     ecut=    40.00 Ry     beta=0.70
     ethr =  3.84E-13

     negative rho (up, down):  5.440E-02 0.000E+00

     total energy              =  -17172.24548921 Ry
     Harris-Foulkes estimate   =       0.00000000 Ry
     estimated scf accuracy    <          2.5E-09 Ry

     iteration # 18     ecut=    40.00 Ry     beta=0.70
     ethr =  1.00E-13

     negative rho (up, down):  5.440E-02 0.000E+00

     total energy              =  -17172.24551933 Ry
     Harris-Foulkes estimate   =       0.00000000 Ry
     estimated scf accuracy    <          1.0E-09 Ry

     iteration # 19     ecut=    40.00 Ry     beta=0.70
     ethr =  1.00E-13

     negative rho (up, down):  5.440E-02 0.000E+00

     total energy              =  -17172.24592201 Ry
     Harris-Foulkes estimate   =       0.00000000 Ry
     estimated scf accuracy    <          3.0E-09 Ry

     iteration # 20     ecut=    40.00 Ry     beta=0.70
     ethr =  1.00E-13

     negative rho (up, down):  5.440E-02 0.000E+00

     total energy              =  -17172.24622058 Ry
     Harris-Foulkes estimate   =       0.00000000 Ry
     estimated scf accuracy    <          2.4E-09 Ry

     iteration # 21     ecut=    40.00 Ry     beta=0.70
     ethr =  1.00E-13

     negative rho (up, down):  5.440E-02 0.000E+00

     total energy              =  -17172.24585357 Ry
     Harris-Foulkes estimate   =       0.00000000 Ry
     estimated scf accuracy    <          9.8E-09 Ry

     iteration # 22     ecut=    40.00 Ry     beta=0.70
     ethr =  1.00E-13

     negative rho (up, down):  5.440E-02 0.000E+00

     total energy              =  -17172.24581359 Ry
     Harris-Foulkes estimate   =       0.00000000 Ry
     estimated scf accuracy    <          8.7E-09 Ry

     iteration # 23     ecut=    40.00 Ry     beta=0.70
     ethr =  1.00E-13

     negative rho (up, down):  5.440E-02 0.000E+00

     End of self-consistent calculation

     End of self-consistent calculation

          k = 0.0000 0.0000 0.0000 (119825 PWs)   bands (ev):

   -46.5546 -46.5543 -46.5543 -46.5543 -46.5543 -46.5543 -46.5543 -46.5540
   -46.5540 -46.5540 -46.5540 -46.5540 -46.5540 -46.5540 -46.5540 -46.5540
   -46.5540 -46.5540 -46.5540 -46.5540 -46.5540 -46.5540 -46.5537 -46.5537
   -46.5537 -46.5537 -46.5537 -46.5537 -46.5537 -46.5537 -46.5537 -46.5537
   -46.5537 -46.5537 -46.5537 -46.5537 -46.5537 -46.5537 -46.5537 -46.5537
   -46.5537 -46.5537 -46.5534 -46.5534 -46.5534 -46.5534 -46.5534 -46.5534
   -46.5534 -46.5534 -46.5534 -46.5534 -46.5534 -46.5534 -46.5534 -46.5534
   -46.5534 -46.5531 -46.5531 -46.5531 -46.5531 -46.5531 -46.5531 -46.5528
   -22.8160 -22.8160 -22.8160 -22.8145 -22.8145 -22.8145 -22.8145 -22.8145
   -22.8145 -22.8145 -22.8145 -22.8145 -22.8145 -22.8145 -22.8145 -22.8131
   -22.8131 -22.8131 -22.8131 -22.8131 -22.8131 -22.8131 -22.8131 -22.8131
   -22.8131 -22.8131 -22.8131 -22.8129 -22.8129 -22.8129 -22.8129 -22.8129
   -22.8129 -22.8117 -22.8117 -22.8117 -22.8117 -22.8117 -22.8117 -22.8117
   -22.8117 -22.8117 -22.8117 -22.8117 -22.8117 -22.8105 -22.8105 -22.8105
   -22.7927 -22.7927 -22.7927 -22.7927 -22.7927 -22.7927 -22.7917 -22.7917
   -22.7917 -22.7917 -22.7917 -22.7917 -22.7917 -22.7917 -22.7917 -22.7917
   -22.7917 -22.7917 -22.7910 -22.7910 -22.7910 -22.7910 -22.7910 -22.7910
   -22.7910 -22.7910 -22.7910 -22.7910 -22.7910 -22.7910 -22.7907 -22.7907
   -22.7907 -22.7907 -22.7907 -22.7907 -22.7907 -22.7907 -22.7901 -22.7901
   -22.7901 -22.7901 -22.7901 -22.7901 -22.7901 -22.7901 -22.7901 -22.7901
   -22.7901 -22.7901 -22.7900 -22.7900 -22.7900 -22.7900 -22.7900 -22.7900
   -22.7900 -22.7900 -22.7900 -22.7900 -22.7900 -22.7900 -22.7900 -22.7900
   -22.7899 -22.7899 -22.7892 -22.7892 -22.7892 -22.7892 -22.7892 -22.7892
   -22.7892 -22.7892 -22.7892 -22.7892 -22.7892 -22.7892 -22.7889 -22.7889
   -22.7889 -22.7889 -22.7889 -22.7889 -22.7889 -22.7889 -22.7889 -22.7889
   -22.7889 -22.7889 -22.7880 -22.7880 -22.7880 -22.7880 -22.7880 -22.7880
   -22.7691 -22.7691 -22.7691 -22.7681 -22.7681 -22.7681 -22.7681 -22.7681
   -22.7681 -22.7681 -22.7681 -22.7681 -22.7681 -22.7681 -22.7681 -22.7671
   -22.7671 -22.7671 -22.7671 -22.7671 -22.7671 -22.7671 -22.7671 -22.7671
   -22.7671 -22.7671 -22.7671 -22.7671 -22.7671 -22.7671 -22.7671 -22.7671
   -22.7671 -22.7662 -22.7662 -22.7662 -22.7662 -22.7662 -22.7662 -22.7662
   -22.7662 -22.7662 -22.7662 -22.7662 -22.7662 -22.7652 -22.7652 -22.7652
   -14.5786 -14.5226 -14.5226 -14.5226 -14.5226 -14.5226 -14.5226 -14.4762
   -14.4762 -14.4762 -14.4762 -14.4762 -14.4762 -14.4762 -14.4762 -14.4762
   -14.4762 -14.4762 -14.4762 -14.4651 -14.4651 -14.4651 -14.4358 -14.4358
   -14.4358 -14.4358 -14.4358 -14.4358 -14.4358 -14.4358 -14.4287 -14.4287
   -14.4287 -14.4287 -14.4287 -14.4287 -14.4287 -14.4287 -14.4287 -14.4287
   -14.4287 -14.4287 -14.3946 -14.3946 -14.3946 -14.3946 -14.3946 -14.3946
   -14.3946 -14.3946 -14.3946 -14.3946 -14.3946 -14.3946 -14.3915 -14.3915
   -14.3915 -14.3600 -14.3600 -14.3600 -14.3600 -14.3600 -14.3600 -14.3280
    -6.9047  -6.9047  -6.9047  -6.7599  -6.7599  -6.7599  -6.7599  -6.7599
    -6.7599  -6.6962  -6.6550  -6.6550  -6.6550  -6.6550  -6.6550  -6.6550
    -6.6550  -6.6550  -6.6550  -6.6550  -6.6550  -6.6550  -6.6509  -6.6509
    -6.6509  -6.6509  -6.6509  -6.6509  -6.6509  -6.6509  -6.6509  -6.6509
    -6.6509  -6.6509  -6.4847  -6.4847  -6.4847  -6.4847  -6.4847  -6.4847
    -6.4847  -6.4847  -6.3954  -6.3954  -6.3954  -6.3954  -6.3954  -6.3954
    -6.3954  -6.3954  -6.3954  -6.3954  -6.3954  -6.3954  -6.3364  -6.3364
    -6.3364  -6.0773  -6.0772  -6.0772  -6.0772  -6.0772  -6.0772  -6.0186
    -6.0186  -6.0028  -6.0028  -6.0028  -6.0028  -6.0028  -6.0028  -5.9944
    -5.9944  -5.9944  -5.9944  -5.9944  -5.9944  -5.9944  -5.9944  -5.9944
    -5.9944  -5.9944  -5.9944  -5.9869  -5.9869  -5.9869  -5.9657  -5.9657
    -5.9657  -5.9657  -5.9657  -5.9657  -5.9524  -5.9524  -5.9524  -5.9524
    -5.9524  -5.9524  -5.9524  -5.9524  -5.9524  -5.9524  -5.9524  -5.9524
    -5.9461  -5.9461  -5.9461  -5.9461  -5.9461  -5.9461  -5.9461  -5.9461
    -5.9461  -5.9461  -5.9461  -5.9461  -5.9461  -5.9461  -5.9461  -5.9461
    -5.9343  -5.9343  -5.9343  -5.9343  -5.9343  -5.9343  -5.9343  -5.9343
    -5.9343  -5.9343  -5.9343  -5.9343  -5.9321  -5.9321  -5.9321  -5.9321
    -5.9321  -5.9321  -5.8961  -5.8961  -5.8961  -5.8961  -5.8961  -5.8961
    -5.8961  -5.8961  -5.8961  -5.8961  -5.8961  -5.8961  -5.8846  -5.8846
    -5.8846  -5.8846  -5.8846  -5.8846  -5.8846  -5.8846  -5.8846  -5.8846
    -5.8846  -5.8846  -5.8653  -5.8653  -5.8653  -5.8653  -5.8653  -5.8653
    -5.8653  -5.8653  -5.8653  -5.8653  -5.8653  -5.8653  -5.8513  -5.8513
    -5.8513  -5.8513  -5.8513  -5.8513  -5.8513  -5.8513  -5.8513  -5.8513
    -5.8513  -5.8513  -5.7981  -5.7981  -5.7981  -5.7388  -5.7388  -5.7388
    -0.4657  -0.4657  -0.4657  -0.1495  -0.1495  -0.1495  -0.1495  -0.1495
    -0.1495  -0.1495  -0.1495  -0.1495  -0.1495  -0.1495  -0.1495  -0.0667
    -0.0667  -0.0667  -0.0667  -0.0667  -0.0667  -0.0667  -0.0667  -0.0667
    -0.0667  -0.0667  -0.0667   0.0082   0.0082   0.0082   0.0082   0.0082
     0.0082   0.0714   0.0714   0.0714   0.0714   0.0714   0.0714   0.0714
     0.0714   0.0714   0.0714   0.0714   0.0714   0.0714   0.0714   0.0714
     0.0714   0.1098   0.1098   0.1098   0.1098   0.1098   0.1098   0.1098
     0.1098   0.1098   0.1098   0.1098   0.1098   0.1864   0.1864   0.1864
     0.1864   0.1864   0.1864   0.2081   0.2081   0.2081   0.2081   0.2081
     0.2081   0.2081   0.2081   0.2081   0.2081   0.2081   0.2081   0.2237
     0.2237   0.2237   0.2759   0.2759   0.2759   0.2759   0.2759   0.2759
     0.2759   0.2759   0.2759   0.2759   0.2759   0.2759   0.3043   0.3043
     0.3043   0.3043   0.3043   0.3043   0.3043   0.3043   0.3043   0.3043
     0.3043   0.3043   0.3633   0.3633   0.3633   0.3633   0.3633   0.3633
     0.3633   0.3633   0.3633   0.3633   0.3633   0.3633   0.3890   0.3890
     0.3890   0.3891   0.3891   0.3891   0.3917   0.3917   0.3917   0.3917
     0.3917   0.3917   0.3917   0.3917   0.3917   0.3917   0.3917   0.3917
     0.3930   0.3930   0.3930   0.3930   0.3930   0.3930   0.3930   0.3930
     0.3930   0.3930   0.3930   0.3930   0.4242   0.4242   0.4242   0.4242
     0.4242   0.4242   0.4867   0.4867   0.4867   0.4867   0.4867   0.4867
     0.4867   0.4867   0.4867   0.4867   0.4867   0.4867   0.4934   0.4934
     0.4934   0.4934   0.4934   0.4934   0.4934   0.4934   0.4934   0.4934
     0.4934   0.4934   0.5905   0.5905   0.5905   0.6164   0.6164   0.6164
     0.6164   0.6164   0.6164   0.6164   0.6164   0.6200   0.6200   0.6200
     5.6581   5.8372   5.8372   5.8372   5.8372   5.8372   5.8372   5.8485
     5.8485   5.8485   6.0287   6.0287   6.0287   6.0287   6.0287   6.0287
     6.0287   6.0287   6.0287   6.0287   6.0287   6.0287   6.0642   6.0642
     6.0642   6.0642   6.0642   6.0642   6.0642   6.0642   6.0642   6.0642
     6.0642   6.0642   6.1437   6.1437   6.1437   6.1513   6.1513   6.1513
     6.2997   6.2997   6.2997   6.3077   6.3077   6.3077   6.3077   6.3077
     6.3077   6.3158   6.3158   6.4331   6.4331   6.4331   6.4331   6.4331
     6.4331   6.4331   6.4331   6.6571   6.6571   6.6571   6.6571   6.6571
     6.6571   6.6571   6.6571   6.6571   6.6571   6.6571   6.6571   6.7631
     6.7631   6.7631   6.7631   6.7631   6.7631   6.7631   6.7631   6.7631
     6.7631   6.7631   6.7631   6.8747   6.8747   6.8747   6.8747   6.8747
     6.8747   6.8747   6.8747   6.8747   6.8747   6.8747   6.8747   6.9319
     6.9319   6.9319   6.9319   6.9319   6.9319   6.9319   6.9319   6.9319
     6.9319   6.9319   6.9319   6.9506   6.9506   6.9506   6.9506   6.9506
     6.9506   6.9506   6.9506   6.9506   6.9506   6.9506   6.9506   6.9621
     6.9621   6.9621   6.9621   6.9621   6.9621   6.9939   6.9939   6.9939
     6.9939   6.9939   6.9939   7.0588   7.0588   7.0588   7.0588   7.0588
     7.0588   7.0588   7.0588   7.0588   7.0588   7.0588   7.0588   7.0814
     7.0814   7.0814   7.0814   7.0814   7.0814   7.0814   7.0814   7.0814
     7.0814   7.0814   7.0814   7.0814   7.0814   7.0814   7.0814   7.1088
     7.1088   7.1088   7.1088   7.1088   7.1088   7.1088   7.1088   7.1088
     7.1088   7.1088   7.1088   7.1348   7.1348   7.1348   7.1348   7.1348
     7.1348   7.3793   7.3793   7.3793   7.3793   7.3793   7.3793   7.4218
     7.4218   7.4218   7.4218   7.4218   7.4218   7.4218   7.4218   7.4218
     7.4218   7.4218   7.4218   7.4666   7.4666   7.4666   7.4666   7.4666
     7.4666   7.4666   7.4666   7.4666   7.4666   7.4666   7.4666   7.4869
     7.4869   7.4869   7.4869   7.4869   7.4869   7.6049   7.6049   7.6049
     7.6049   7.6049   7.6049   7.6049   7.6049   7.6075   7.6075   7.6075
     7.6075   7.6075   7.6075   7.6075   7.6075   7.6075   7.6075   7.6075
     7.6075   7.6427   7.6427   7.6427   7.6427   7.6427   7.6427   7.6427
     7.6427   7.6427   7.6427   7.6427   7.6427   7.6660   7.6660   7.6660
     7.6660   7.6660   7.6660   7.6660   7.6660   7.6660   7.6660   7.6660
     7.6660   7.7017   7.7017   7.7017   7.7017   7.7017   7.7017   7.7017
     7.7017   7.7017   7.7017   7.7017   7.7017   7.7349   7.7349   7.7349
     7.7984   7.7984   7.7984   7.7984   7.7984   7.7984   7.7984   7.7984
     7.7984   7.7984   7.7984   7.7984   7.7984   7.7984   7.7984   7.7984
     7.8102   7.8102   7.8102   7.8744   7.8744   7.8744   7.8744   7.8744
     7.8744   7.8744   7.8744   7.8744   7.8744   7.8744   7.8744   7.9704
     7.9704   7.9704   7.9704   7.9704   7.9704   7.9704   7.9704   7.9704
     7.9704   7.9704   7.9704   8.0889   8.0889   8.0889   8.0889   8.0889
     8.0889   8.0889   8.0889   8.0889   8.0889   8.0889   8.0889   8.1987
     8.1987   8.1987   8.2564   8.2564   8.2564   8.2870   8.2870   8.2870
     8.2870   8.2870   8.2870   8.3837   8.3837   8.3837   8.5264   8.5264
     8.5264   8.5264   8.5264   8.5264   8.5264   8.5264   8.5264   8.5264
     8.5264   8.5264   8.5945   8.5945   8.5945   8.5945   8.5945   8.5945
     8.6421   8.6421   8.6421   8.6421   8.6421   8.6421   8.6421   8.6421
     8.6421   8.6421   8.6421   8.6421   8.7550   8.7550   8.7550   8.7550
     8.7550   8.7550   8.7550   8.7550   8.7550   8.7550   8.7550   8.7550
     8.8234   8.8234   8.8234   8.8234   8.8234   8.8234   8.8234   8.8234
     8.8234   8.8234   8.8234   8.8234   8.8913   8.8913   8.8913   8.8913
     8.8913   8.8913   8.9937   8.9937   8.9937   9.0119   9.0119   9.0119
     9.0119   9.0119   9.0119   9.0119   9.0119   9.0119   9.0119   9.0119
     9.0119   9.0961   9.0961   9.0961   9.0961   9.0961   9.0961   9.0961
     9.0961   9.0961   9.0961   9.0961   9.0961   9.1676   9.1676   9.1676
     9.1676   9.1676   9.1676   9.1676   9.1676   9.1676   9.1676   9.1676
     9.1676   9.2181   9.2181   9.2181   9.2181   9.2181   9.2181   9.2181
     9.2181   9.2181   9.2181   9.2181   9.2181   9.2418   9.2418   9.2418
     9.2418   9.2418   9.2418   9.4031   9.4031   9.4031   9.4031   9.4031
     9.4031   9.4031   9.4031   9.4031   9.4031   9.4031   9.4031   9.4031
     9.4031   9.4031   9.4031   9.4073   9.4073   9.4073   9.4073   9.4073
     9.4073   9.5092   9.5092   9.5092   9.5092   9.5092   9.5092   9.5092
     9.5092   9.5172   9.5172   9.5172   9.5172   9.5172   9.5172   9.5172
     9.5172   9.5172   9.5172   9.5172   9.5172   9.5829   9.5829   9.5829
     9.5829   9.5829   9.5829   9.5829   9.5829   9.5829   9.5829   9.5829
     9.5829   9.6088   9.6088   9.6088   9.6088   9.6088   9.6088   9.6088
     9.6088   9.6088   9.6088   9.6088   9.6088   9.6153   9.6153   9.6153
     9.6153   9.6153   9.6153   9.6153   9.6153   9.6153   9.6153   9.6153
     9.6153   9.6272   9.6272   9.6272   9.6272   9.6272   9.6272   9.6272
     9.6272   9.6272   9.6272   9.6272   9.6272   9.6414   9.6414   9.6414
     9.6414   9.6414   9.6414   9.6414   9.6414   9.6414   9.6414   9.6414
     9.6414   9.9631   9.9631   9.9631  10.0363  10.0363  10.0363  10.0607
    10.0607  10.0607  10.0607  10.0607  10.0607  10.0854  10.0854  10.0854

     occupation numbers 
     1.0000   1.0000   1.0000   1.0000   1.0000   1.0000   1.0000   1.0000
     1.0000   1.0000   1.0000   1.0000   1.0000   1.0000   1.0000   1.0000
     1.0000   1.0000   1.0000   1.0000   1.0000   1.0000   1.0000   1.0000
     1.0000   1.0000   1.0000   1.0000   1.0000   1.0000   1.0000   1.0000
     1.0000   1.0000   1.0000   1.0000   1.0000   1.0000   1.0000   1.0000
     1.0000   1.0000   1.0000   1.0000   1.0000   1.0000   1.0000   1.0000
     1.0000   1.0000   1.0000   1.0000   1.0000   1.0000   1.0000   1.0000
     1.0000   1.0000   1.0000   1.0000   1.0000   1.0000   1.0000   1.0000
     1.0000   1.0000   1.0000   1.0000   1.0000   1.0000   1.0000   1.0000
     1.0000   1.0000   1.0000   1.0000   1.0000   1.0000   1.0000   1.0000
     1.0000   1.0000   1.0000   1.0000   1.0000   1.0000   1.0000   1.0000
     1.0000   1.0000   1.0000   1.0000   1.0000   1.0000   1.0000   1.0000
     1.0000   1.0000   1.0000   1.0000   1.0000   1.0000   1.0000   1.0000
     1.0000   1.0000   1.0000   1.0000   1.0000   1.0000   1.0000   1.0000
     1.0000   1.0000   1.0000   1.0000   1.0000   1.0000   1.0000   1.0000
     1.0000   1.0000   1.0000   1.0000   1.0000   1.0000   1.0000   1.0000
     1.0000   1.0000   1.0000   1.0000   1.0000   1.0000   1.0000   1.0000
     1.0000   1.0000   1.0000   1.0000   1.0000   1.0000   1.0000   1.0000
     1.0000   1.0000   1.0000   1.0000   1.0000   1.0000   1.0000   1.0000
     1.0000   1.0000   1.0000   1.0000   1.0000   1.0000   1.0000   1.0000
     1.0000   1.0000   1.0000   1.0000   1.0000   1.0000   1.0000   1.0000
     1.0000   1.0000   1.0000   1.0000   1.0000   1.0000   1.0000   1.0000
     1.0000   1.0000   1.0000   1.0000   1.0000   1.0000   1.0000   1.0000
     1.0000   1.0000   1.0000   1.0000   1.0000   1.0000   1.0000   1.0000
     1.0000   1.0000   1.0000   1.0000   1.0000   1.0000   1.0000   1.0000
     1.0000   1.0000   1.0000   1.0000   1.0000   1.0000   1.0000   1.0000
     1.0000   1.0000   1.0000   1.0000   1.0000   1.0000   1.0000   1.0000
     1.0000   1.0000   1.0000   1.0000   1.0000   1.0000   1.0000   1.0000
     1.0000   1.0000   1.0000   1.0000   1.0000   1.0000   1.0000   1.0000
     1.0000   1.0000   1.0000   1.0000   1.0000   1.0000   1.0000   1.0000
     1.0000   1.0000   1.0000   1.0000   1.0000   1.0000   1.0000   1.0000
     1.0000   1.0000   1.0000   1.0000   1.0000   1.0000   1.0000   1.0000
     1.0000   1.0000   1.0000   1.0000   1.0000   1.0000   1.0000   1.0000
     1.0000   1.0000   1.0000   1.0000   1.0000   1.0000   1.0000   1.0000
     1.0000   1.0000   1.0000   1.0000   1.0000   1.0000   1.0000   1.0000
     1.0000   1.0000   1.0000   1.0000   1.0000   1.0000   1.0000   1.0000
     1.0000   1.0000   1.0000   1.0000   1.0000   1.0000   1.0000   1.0000
     1.0000   1.0000   1.0000   1.0000   1.0000   1.0000   1.0000   1.0000
     1.0000   1.0000   1.0000   1.0000   1.0000   1.0000   1.0000   1.0000
     1.0000   1.0000   1.0000   1.0000   1.0000   1.0000   1.0000   1.0000
     1.0000   1.0000   1.0000   1.0000   1.0000   1.0000   1.0000   1.0000
     1.0000   1.0000   1.0000   1.0000   1.0000   1.0000   1.0000   1.0000
     1.0000   1.0000   1.0000   1.0000   1.0000   1.0000   1.0000   1.0000
     1.0000   1.0000   1.0000   1.0000   1.0000   1.0000   1.0000   1.0000
     1.0000   1.0000   1.0000   1.0000   1.0000   1.0000   1.0000   1.0000
     1.0000   1.0000   1.0000   1.0000   1.0000   1.0000   1.0000   1.0000
     1.0000   1.0000   1.0000   1.0000   1.0000   1.0000   1.0000   1.0000
[...]
--------------------------------------------------------------------------------------------------------------------------------------------
name                                                                 count      total        min        max    average    self (%)
--------------------------------------------------------------------------------------------------------------------------------------------
Eigenproblem_elpa1|diag                                           :    109   200.6699     0.4203     4.6423     1.8410     100.00
qe|electrons                                                      :      1   379.3858   379.3858   379.3858   379.3858       0.00
qe|electrons|init                                                 :      1     9.4254     9.4254     9.4254     9.4254       3.06
qe|electrons|scf                                                  :      1   369.9597   369.9597   369.9597   369.9597       0.00
qe|init_run|hinit0                                                :      1     0.3267     0.3267     0.3267     0.3267       0.54
qe|init_run|hinit0|init_us_1                                      :      1     0.0367     0.0367     0.0367     0.0367     100.00
qe|init_run|hinit0|struc_fact                                     :      1     0.2879     0.2879     0.2879     0.2879     100.00
qe|mix                                                            :     23     3.7183     0.0813     0.9076     0.1617      81.20
qe|run_pwscf                                                      :      1   385.5282   385.5282   385.5282   385.5282       0.39
qe|run_pwscf|electrons                                            :      1   379.3862   379.3862   379.3862   379.3862       0.00
qe|run_pwscf|init_run                                             :      1     1.1356     1.1356     1.1356     1.1356      71.23
qe|run_pwscf|setup                                                :      1     0.0887     0.0887     0.0887     0.0887     100.00
qe|run_pwscf|setup_sirius                                         :      1     3.4278     3.4278     3.4278     3.4278       0.41
qe|veff                                                           :     23     7.5441     0.1992     2.0751     0.3280      88.70
sddk::FFT3D::FFT3D                                                :      2     0.3145     0.0146     0.2999     0.1572     100.00
sddk::FFT3D::prepare                                              :     95     0.1789     0.0016     0.0047     0.0019       0.35
sddk::FFT3D::prepare|gpu                                          :     95     0.1743     0.0015     0.0045     0.0018     100.00
sddk::FFT3D::transform                                            :   3147     3.0107     0.0005     0.0437     0.0010       0.71
sddk::FFT3D::transform_xy                                         :   3147     1.8450     0.0003     0.0009     0.0006     100.00
sddk::FFT3D::transform_z                                          :   3147     1.1444     0.0001     0.0434     0.0004      27.79
sddk::FFT3D::transform_z_serial                                   :   3147     0.4885     0.0001     0.0038     0.0002     100.00
sddk::FFT3D::transform_z|comm                                     :     98     0.3379     0.0015     0.0426     0.0034     100.00
sddk::Gvec::find_gvec_shells                                      :      3     0.1926     0.0097     0.1385     0.0642     100.00
sddk::Gvec::init                                                  :      3     0.3125     0.0160     0.2227     0.1042      38.36
sddk::matrix_storage::matrix_storage                              :    143     0.1262     0.0000     0.0294     0.0009     100.00
sddk::matrix_storage::remap_backward                              :    109     2.0323     0.0010     0.1687     0.0186     100.00
sddk::matrix_storage::remap_forward                               :    132     3.3933     0.0017     0.2218     0.0257     100.00
sddk::wave_functions::inner                                       :    303    27.7203     0.0048     0.6373     0.0915     100.00
sddk::wave_functions::orthogonalize                               :    109    65.1583     0.0505     3.3465     0.5978       0.44
sddk::wave_functions::orthogonalize|potrf                         :    109     1.7655     0.0002     0.2088     0.0162     100.00
sddk::wave_functions::orthogonalize|trtri                         :    109     1.0928     0.0001     0.1218     0.0100     100.00
sddk::wave_functions::transform                                   :    530    69.4628     0.0047     0.8340     0.1311      99.99
sirius::Atom_type::init                                           :      3     0.0113     0.0018     0.0073     0.0038     100.00
sirius::Augmentation_operator::generate_pw_coeffs                 :      2     0.2539     0.1227     0.1311     0.1269     100.00
sirius::Band::apply_h_o                                           :    109    47.4393     0.0139     5.6703     0.4352       0.55
sirius::Band::diag_pseudo_potential                               :     23   341.1119     2.0991    39.4863    14.8310       0.04
sirius::Band::diag_pseudo_potential_davidson                      :     23   340.8560     2.0881    39.4754    14.8198       0.05
sirius::Band::diag_pseudo_potential_davidson|alloc                :     23     0.1998     0.0085     0.0104     0.0087      95.15
sirius::Band::diag_pseudo_potential_davidson|evp                  :    108   198.6385     0.4203     4.6423     1.8392       0.00
sirius::Band::diag_pseudo_potential_davidson|iter                 :     23   340.4129     2.0691    39.4564    14.8006       0.00
sirius::Band::diag_pseudo_potential_davidson|update_phi           :     24     9.1079     0.1371     1.0068     0.3795       0.01
sirius::Band::get_h_diag                                          :     23     0.0599     0.0026     0.0029     0.0026     100.00
sirius::Band::get_o_diag                                          :     23     0.0213     0.0009     0.0011     0.0009     100.00
sirius::Band::initialize_subspace                                 :      1     8.6535     8.6535     8.6535     8.6535       0.04
sirius::Band::initialize_subspace|kp                              :      1     8.5946     8.5946     8.5946     8.5946       0.66
sirius::Band::initialize_subspace|kp|wf                           :      1     0.0249     0.0249     0.0249     0.0249     100.00
sirius::Band::residuals                                           :    108    12.8203     0.0000     0.7081     0.1187       1.40
sirius::Band::residuals_aux                                       :     92     0.1297     0.0003     0.0082     0.0014     100.00
sirius::Band::set_subspace_mtrx                                   :    109    13.2263     0.0100     0.5958     0.1213       0.35
sirius::Band::solve_for_kset                                      :     23   342.2383     2.1395    39.5258    14.8799       0.00
sirius::Beta_projectors_base::generate                            :    264     0.1052     0.0002     0.0322     0.0004     100.00
sirius::Beta_projectors_base::inner                               :    264    45.1108     0.0007     3.4148     0.1709     100.00
sirius::Beta_projectors_base::prepare                             :     47     0.0227     0.0004     0.0006     0.0005     100.00
sirius::DFT_ground_state::ewald_energy                            :      1     0.0235     0.0235     0.0235     0.0235     100.00
sirius::Density::add_k_point_contribution_dm                      :     23    11.0566     0.3644     1.2436     0.4807       0.32
sirius::Density::add_k_point_contribution_rg                      :     23     0.7875     0.0340     0.0348     0.0342      12.95
sirius::Density::augment                                          :     23     0.2580     0.0112     0.0113     0.0112       1.14
sirius::Density::generate_pseudo_core_charge_density              :      1     0.0668     0.0668     0.0668     0.0668       0.46
sirius::Density::generate_rho_aug                                 :     23     0.2550     0.0110     0.0111     0.0111     100.00
sirius::Density::generate_valence                                 :     23    16.1649     0.5346     1.6313     0.7028      14.03
sirius::Density::initial_density                                  :      1     0.0621     0.0621     0.0621     0.0621       8.79
sirius::K_point::generate_gkvec                                   :      1     0.0187     0.0187     0.0187     0.0187      14.29
sirius::K_point::initialize                                       :      1     0.0328     0.0328     0.0328     0.0328      11.07
sirius::Local_operator::apply_h                                   :    109     7.3974     0.0047     0.4066     0.0679      17.18
sirius::Local_operator::prepare                                   :     48     1.2645     0.0036     0.1857     0.0263      54.76
sirius::Non_local_operator::apply                                 :    436     5.5673     0.0016     0.1070     0.0128     100.00
sirius::Periodic_function::inner                                  :     69     0.0252     0.0002     0.0008     0.0004      60.22
sirius::Potential::Potential                                      :      1     0.2435     0.2435     0.2435     0.2435      13.06
sirius::Potential::generate_D_operator_matrix                     :     24     0.3368     0.0120     0.0251     0.0140     100.00
sirius::Potential::generate_local_potential                       :      1     0.2117     0.2117     0.2117     0.2117       0.07
sirius::Radial_integrals|aug                                      :      1     0.0454     0.0454     0.0454     0.0454     100.00
sirius::Radial_integrals|beta                                     :      2     0.2075     0.1019     0.1056     0.1038     100.00
sirius::Radial_integrals|rho_core_pseudo                          :      1     0.0187     0.0187     0.0187     0.0187     100.00
sirius::Radial_integrals|rho_pseudo                               :      1     0.0195     0.0195     0.0195     0.0195     100.00
sirius::Radial_integrals|vloc                                     :      1     0.1542     0.1542     0.1542     0.1542     100.00
sirius::Simulation_context::initialize                            :      1     3.3802     3.3802     3.3802     3.3802       0.11
sirius::Simulation_context_base::initialize                       :      1     3.1228     3.1228     3.1228     3.1228      38.28
sirius::Simulation_context_base::make_periodic_function           :      3     0.0735     0.0194     0.0347     0.0245     100.00
sirius::Smooth_periodic_function::fft_transform                   :    121     1.3608     0.0068     0.0979     0.0112      62.19
sirius::Smooth_periodic_function::gather_f_pw                     :     73     1.3989     0.0088     0.1560     0.0192     100.00
sirius::Symmetry::Symmetry                                        :      1     0.8507     0.8507     0.8507     0.8507     100.00
sirius::Symmetry::check_gvec_symmetry                             :      2     0.1588     0.0376     0.1212     0.0794     100.00
sirius::Unit_cell::find_nearest_neighbours                        :      1     0.0314     0.0314     0.0314     0.0314     100.00
sirius::Unit_cell::get_symmetry                                   :      1     0.8538     0.8538     0.8538     0.8538       0.36
sirius::Unit_cell::initialize                                     :      1     0.9001     0.9001     0.9001     0.9001       0.41
--------------------------------------------------------------------------------------------------------------------------------------------
+global_timer (  385.5886s, 0.02 % of self, 100.00 % of total)
|--qe|run_pwscf (  385.5282s, 99.98 %) 
qe|electrons (  379.3858s, 0.00 % of self, 98.39 % of total)
|--qe|electrons|scf (  369.9597s, 97.52 %) 
|--qe|electrons|init (    9.4254s, 2.48 %) 
qe|electrons|init (    9.4254s, 3.06 % of self, 2.44 % of total)
|--sirius::Band::initialize_subspace (    8.6535s, 91.81 %) 
|--sirius::Potential::Potential (    0.2435s, 2.58 %) 
|--sirius::Density::generate_pseudo_core_charge_density (    0.0668s, 0.71 %) 
|--sirius::Density::initial_density (    0.0621s, 0.66 %) 
|--sirius::Smooth_periodic_function::gather_f_pw (    0.0495s, 0.52 %) 
|--sirius::DFT_ground_state::ewald_energy (    0.0235s, 0.25 %) 
|--sirius::Potential::generate_D_operator_matrix (    0.0191s, 0.20 %) 
|--sirius::Smooth_periodic_function::fft_transform (    0.0181s, 0.19 %) 
|--sirius::Band::Band (    0.0005s, 0.01 %) 
qe|electrons|scf (  369.9597s, 0.00 % of self, 95.95 % of total)
|--sirius::Band::solve_for_kset (  342.2383s, 92.51 %) 
|--sirius::Density::generate_valence (   16.1649s, 4.37 %) 
|--qe|veff (    7.5441s, 2.04 %) 
|--qe|mix (    3.7183s, 1.01 %) 
|--sirius::Smooth_periodic_function::fft_transform (    0.2677s, 0.07 %) 
|--sirius::Periodic_function::inner (    0.0152s, 0.00 %) 
qe|run_pwscf (  385.5282s, 0.39 % of self, 99.98 % of total)
|--qe|run_pwscf|electrons (  379.3862s, 98.41 %) 
|--qe|run_pwscf|setup_sirius (    3.4278s, 0.89 %) 
|--qe|run_pwscf|init_run (    1.1356s, 0.29 %) 
|--qe|run_pwscf|setup (    0.0887s, 0.02 %) 
|--qe|run_pwscf|forces (    0.0000s, 0.00 %) 
|--qe|run_pwscf|punch (    0.0000s, 0.00 %) 
|--qe|run_pwscf|ions (    0.0000s, 0.00 %) 
|--qe|run_pwscf|stress (    0.0000s, 0.00 %) 
qe|run_pwscf|electrons (  379.3862s, 0.00 % of self, 98.39 % of total)
|--qe|electrons (  379.3858s, 100.00 %) 
qe|veff (    7.5441s, 88.70 % of self, 1.96 % of total)
|--sirius::Smooth_periodic_function::fft_transform (    0.5348s, 7.09 %) 
|--sirius::Potential::generate_D_operator_matrix (    0.3177s, 4.21 %) 
sddk::wave_functions::orthogonalize (   65.1583s, 0.44 % of self, 16.90 % of total)
|--sddk::wave_functions::transform (   47.4715s, 72.86 %) 
|--sddk::wave_functions::inner (   14.5405s, 22.32 %) 
|--sddk::wave_functions::orthogonalize|potrf (    1.7655s, 2.71 %) 
|--sddk::wave_functions::orthogonalize|trtri (    1.0928s, 1.68 %) 
sddk::wave_functions::transform (   69.4628s, 99.99 % of self, 18.01 % of total)
|--sddk::wave_functions::transform|init (    0.0092s, 0.01 %) 
sirius::Band::apply_h_o (   47.4393s, 0.55 % of self, 12.30 % of total)
|--sirius::Beta_projectors_base::inner (   34.1212s, 71.93 %) 
|--sirius::Local_operator::apply_h (    7.3974s, 15.59 %) 
|--sirius::Non_local_operator::apply (    5.5673s, 11.74 %) 
|--sirius::Beta_projectors_base::generate (    0.0929s, 0.20 %) 
sirius::Band::diag_pseudo_potential (  341.1119s, 0.04 % of self, 88.47 % of total)
|--sirius::Band::diag_pseudo_potential_davidson (  340.8560s, 99.92 %) 
|--sirius::Local_operator::prepare (    0.0851s, 0.02 %) 
|--sddk::FFT3D::prepare (    0.0365s, 0.01 %) 
|--sirius::Non_local_operator::Non_local_operator (    0.0031s, 0.00 %) 
sirius::Band::diag_pseudo_potential_davidson (  340.8560s, 0.05 % of self, 88.40 % of total)
|--sirius::Band::diag_pseudo_potential_davidson|iter (  340.4129s, 99.87 %) 
|--sirius::Band::diag_pseudo_potential_davidson|alloc (    0.1998s, 0.06 %) 
|--sirius::Band::get_h_diag (    0.0599s, 0.02 %) 
|--sirius::Band::get_o_diag (    0.0213s, 0.01 %) 
|--sirius::Beta_projectors_base::dismiss (    0.0027s, 0.00 %) 
|--sirius::Band::diag_pseudo_potential_davidson|wf (    0.0010s, 0.00 %) 
sirius::Band::diag_pseudo_potential_davidson|evp (  198.6385s, 0.00 % of self, 51.52 % of total)
|--Eigenproblem_elpa1|diag (  198.6376s, 100.00 %) 
sirius::Band::diag_pseudo_potential_davidson|iter (  340.4129s, 0.00 % of self, 88.28 % of total)
|--sirius::Band::diag_pseudo_potential_davidson|evp (  198.6385s, 58.35 %) 
|--sddk::wave_functions::orthogonalize (   61.8118s, 18.16 %) 
|--sirius::Band::apply_h_o (   45.3975s, 13.34 %) 
|--sirius::Band::residuals (   12.8203s, 3.77 %) 
|--sirius::Band::set_subspace_mtrx (   12.6305s, 3.71 %) 
|--sirius::Band::diag_pseudo_potential_davidson|update_phi (    9.1079s, 2.68 %) 
sirius::Band::diag_pseudo_potential_davidson|update_phi (    9.1079s, 0.01 % of self, 2.36 % of total)
|--sddk::wave_functions::transform (    9.1073s, 99.99 %) 
sirius::Band::initialize_subspace (    8.6535s, 0.04 % of self, 2.24 % of total)
|--sirius::Band::initialize_subspace|kp (    8.5946s, 99.32 %) 
|--sirius::Local_operator::prepare (    0.0557s, 0.64 %) 
sirius::Band::initialize_subspace|kp (    8.5946s, 0.66 % of self, 2.23 % of total)
|--sddk::wave_functions::orthogonalize (    3.3465s, 38.94 %) 
|--sirius::Band::apply_h_o (    2.0418s, 23.76 %) 
|--Eigenproblem_elpa1|diag (    2.0323s, 23.65 %) 
|--sirius::Band::set_subspace_mtrx (    0.5958s, 6.93 %) 
|--sddk::wave_functions::transform (    0.3725s, 4.33 %) 
|--sddk::matrix_storage::matrix_storage (    0.1167s, 1.36 %) 
|--sirius::Band::initialize_subspace|kp|wf (    0.0249s, 0.29 %) 
|--sirius::Local_operator::prepare (    0.0045s, 0.05 %) 
|--sddk::FFT3D::prepare (    0.0018s, 0.02 %) 
|--sirius::Beta_projectors_base::prepare (    0.0005s, 0.01 %) 
|--sirius::Non_local_operator::Non_local_operator (    0.0001s, 0.00 %) 
|--sirius::Beta_projectors_base::dismiss (    0.0001s, 0.00 %) 
sirius::Band::residuals (   12.8203s, 1.40 % of self, 3.32 % of total)
|--sddk::wave_functions::transform (   12.5114s, 97.59 %) 
|--sirius::Band::residuals_aux (    0.1297s, 1.01 %) 
sirius::Band::set_subspace_mtrx (   13.2263s, 0.35 % of self, 3.43 % of total)
|--sddk::wave_functions::inner (   13.1798s, 99.65 %) 
sirius::Band::solve_for_kset (  342.2383s, 0.00 % of self, 88.76 % of total)
|--sirius::Band::diag_pseudo_potential (  341.1119s, 99.67 %) 
|--sirius::Local_operator::prepare (    1.1192s, 0.33 %) 
|--sirius::K_point_set::sync_band_energies (    0.0002s, 0.00 %) 
sirius::Density::add_k_point_contribution_dm (   11.0566s, 0.32 % of self, 2.87 % of total)
|--sirius::Beta_projectors_base::inner (   10.9896s, 99.39 %) 
|--sirius::Beta_projectors_base::prepare (    0.0125s, 0.11 %) 
|--sirius::Beta_projectors_base::generate (    0.0124s, 0.11 %) 
|--sirius::Beta_projectors_base::dismiss (    0.0068s, 0.06 %) 
sirius::Density::generate_valence (   16.1649s, 14.03 % of self, 4.19 % of total)
|--sirius::Density::add_k_point_contribution_dm (   11.0566s, 68.40 %) 
|--sddk::matrix_storage::remap_forward (    1.0806s, 6.68 %) 
|--sirius::Density::add_k_point_contribution_rg (    0.7875s, 4.87 %) 
|--sirius::Smooth_periodic_function::gather_f_pw (    0.4727s, 2.92 %) 
|--sirius::Density::augment (    0.2580s, 1.60 %) 
|--sirius::Smooth_periodic_function::fft_transform (    0.1923s, 1.19 %) 
|--sddk::FFT3D::prepare (    0.0494s, 0.31 %) 
sirius::Local_operator::apply_h (    7.3974s, 17.18 % of self, 1.92 % of total)
|--sddk::matrix_storage::remap_forward (    2.3127s, 31.26 %) 
|--sddk::matrix_storage::remap_backward (    2.0323s, 27.47 %) 
|--sddk::FFT3D::transform (    1.7817s, 24.09 %) 

     init_run     :      3.17s CPU      1.13s WALL (       1 calls)

     Called by init_run:

     Called by electrons:
     v_of_rho     :      7.53s CPU      1.57s WALL (      24 calls)
     v_h          :      0.96s CPU      0.09s WALL (      24 calls)
     v_xc         :      6.46s CPU      1.47s WALL (      24 calls)
     mix_rho      :      1.76s CPU      0.45s WALL (      23 calls)

     Called by c_bands:

     Called by sum_band:

     Called by *egterg:

     Called by h_psi:

     General routines
     fft          :      7.24s CPU      1.08s WALL (     310 calls)

     Parallel routines
     fft_scatter  :      6.54s CPU      0.87s WALL (     310 calls)

     PWSCF        : 42m24.64s CPU     6m27.84s WALL


   This run was terminated on:  11: 3: 1  10Oct2017            

=------------------------------------------------------------------------------=
   JOB DONE.
=------------------------------------------------------------------------------=
